 Entering Gaussian System, Link 0=g09
 Initial command:
 /nopt/nrel/apps/gaussian/D.01/g09/l1.exe "/scratch/ngallup/3232351/Gau-6372.inp" -scrdir="/scratch/ngallup/3232351/"
 Default linda workers:  n2284,n2282
 Default is to use  24 SMP processors on each worker.
 Entering Link 1 = /nopt/nrel/apps/gaussian/D.01/g09/l1.exe PID=      6373.
  
 Copyright (c) 1988,1990,1992,1993,1995,1998,2003,2009,2013,
            Gaussian, Inc.  All Rights Reserved.
  
 This is part of the Gaussian(R) 09 program.  It is based on
 the Gaussian(R) 03 system (copyright 2003, Gaussian, Inc.),
 the Gaussian(R) 98 system (copyright 1998, Gaussian, Inc.),
 the Gaussian(R) 94 system (copyright 1995, Gaussian, Inc.),
 the Gaussian 92(TM) system (copyright 1992, Gaussian, Inc.),
 the Gaussian 90(TM) system (copyright 1990, Gaussian, Inc.),
 the Gaussian 88(TM) system (copyright 1988, Gaussian, Inc.),
 the Gaussian 86(TM) system (copyright 1986, Carnegie Mellon
 University), and the Gaussian 82(TM) system (copyright 1983,
 Carnegie Mellon University). Gaussian is a federally registered
 trademark of Gaussian, Inc.
  
 This software contains proprietary and confidential information,
 including trade secrets, belonging to Gaussian, Inc.
  
 This software is provided under written license and may be
 used, copied, transmitted, or stored only in accord with that
 written license.
  
 The following legend is applicable only to US Government
 contracts under FAR:
  
                    RESTRICTED RIGHTS LEGEND
  
 Use, reproduction and disclosure by the US Government is
 subject to restrictions as set forth in subparagraphs (a)
 and (c) of the Commercial Computer Software - Restricted
 Rights clause in FAR 52.227-19.
  
 Gaussian, Inc.
 340 Quinnipiac St., Bldg. 40, Wallingford CT 06492
  
  
 ---------------------------------------------------------------
 Warning -- This program may not be used in any manner that
 competes with the business of Gaussian, Inc. or will provide
 assistance to any competitor of Gaussian, Inc.  The licensee
 of this program is prohibited from giving any competitor of
 Gaussian, Inc. access to this program.  By using this program,
 the user acknowledges that Gaussian, Inc. is engaged in the
 business of creating and licensing software in the field of
 computational chemistry and represents and warrants to the
 licensee that it is not a competitor of Gaussian, Inc. and that
 it will not use this program in any manner prohibited above.
 ---------------------------------------------------------------
  

 Cite this work as:
 Gaussian 09, Revision D.01,
 M. J. Frisch, G. W. Trucks, H. B. Schlegel, G. E. Scuseria, 
 M. A. Robb, J. R. Cheeseman, G. Scalmani, V. Barone, B. Mennucci, 
 G. A. Petersson, H. Nakatsuji, M. Caricato, X. Li, H. P. Hratchian, 
 A. F. Izmaylov, J. Bloino, G. Zheng, J. L. Sonnenberg, M. Hada, 
 M. Ehara, K. Toyota, R. Fukuda, J. Hasegawa, M. Ishida, T. Nakajima, 
 Y. Honda, O. Kitao, H. Nakai, T. Vreven, J. A. Montgomery, Jr., 
 J. E. Peralta, F. Ogliaro, M. Bearpark, J. J. Heyd, E. Brothers, 
 K. N. Kudin, V. N. Staroverov, T. Keith, R. Kobayashi, J. Normand, 
 K. Raghavachari, A. Rendell, J. C. Burant, S. S. Iyengar, J. Tomasi, 
 M. Cossi, N. Rega, J. M. Millam, M. Klene, J. E. Knox, J. B. Cross, 
 V. Bakken, C. Adamo, J. Jaramillo, R. Gomperts, R. E. Stratmann, 
 O. Yazyev, A. J. Austin, R. Cammi, C. Pomelli, J. W. Ochterski, 
 R. L. Martin, K. Morokuma, V. G. Zakrzewski, G. A. Voth, 
 P. Salvador, J. J. Dannenberg, S. Dapprich, A. D. Daniels, 
 O. Farkas, J. B. Foresman, J. V. Ortiz, J. Cioslowski, 
 and D. J. Fox, Gaussian, Inc., Wallingford CT, 2013.
 
 ******************************************
 Gaussian 09:  ES64L-G09RevD.01 24-Apr-2013
                22-May-2017 
 ******************************************
 %chk=Co_charge0_1et_conf1.chk
 SetLPE:  input flags="-vv -opt "Tsnet.Node.lindarsharg: ssh" "
 SetLPE:    new flags="-vv -opt "Tsnet.Node.lindarsharg: ssh"  -nodelist 'n2284.hpc.nrel.gov n2282.hpc.nrel.gov'"
 Will use up to    2 processors via Linda.
 Default route:  CacheSize=163840 MaxDisk=128GB
 ----------------------------------------------------------------------
 # opt freq ub3lyp/6-31+g(d) guess=(mix,always) int=ultrafine scf=xqc e
 mpiricaldispersion=gd3
 ----------------------------------------------------------------------
 1/4=163840,14=-1,18=20,19=15,26=4,38=1/1,3;
 2/4=163840,9=110,12=2,17=6,18=5,40=1/2;
 3/4=163840,5=1,6=6,7=11,11=2,16=1,25=1,30=1,71=1,74=-5,75=-5,116=2,124=31/1,2,3;
 4/4=163840,13=-1/1;
 5/4=163840,5=2,8=3,13=1,38=5/2,8;
 6/4=163840,7=2,8=2,9=2,10=2,28=1/1;
 7/4=163840/1,2,3,16;
 1/4=163840,14=-1,18=20,19=15,26=4/3(2);
 2/4=163840,9=110/2;
 99/4=163840/99;
 2/4=163840,9=110/2;
 3/4=163840,5=1,6=6,7=11,11=2,16=1,25=1,30=1,71=1,74=-5,75=-5,116=2,124=31/1,2,3;
 4/4=163840,13=-1/1;
 5/4=163840,5=2,8=3,13=1,38=5/2,8;
 7/4=163840/1,2,3,16;
 1/4=163840,14=-1,18=20,19=15,26=4/3(-5);
 2/4=163840,9=110/2;
 6/4=163840,7=2,8=2,9=2,10=2,19=2,28=1/1;
 99/4=163840,9=1/99;
 ---------------------------------------------
 Automatically Generated by ZeoliteClusterizer
 ---------------------------------------------
 Symbolic Z-matrix:
 Charge =  0 Multiplicity = 1
 O                    0     3.39471   0.34429  -0.41265 
 O                    0    -3.28328  -0.40623  -0.40431 
 O                    0     1.31985   1.82401   0.22591 
 O                    0    -0.81737  -1.79155   0.36909 
 O                    0     1.73387  -1.69051  -0.25464 
 O                    0    -1.27109   1.70561  -0.19186 
 Si                   0     2.91428   1.67132   0.36009 
 Si                   0     0.59216  -2.56589   0.46699 
 Si                   0     3.26097  -1.25904  -0.52043 
 Si                   0    -2.84393   1.168    -0.32891 
 Si                   0    -0.07773   2.60298   0.40907 
 Al                   0    -2.47822  -1.59702   0.49732 
 H                    -1    4.13158  -1.88988   0.49948 
 H                    -1    3.64957  -1.65339  -1.88981 
 H                    -1    3.56623   2.83901  -0.26993 
 H                    -1    3.2491    1.56944   1.79942 
 H                    -1   -0.05122   3.86361  -0.36101 
 H                    -1   -0.3499    2.82317   1.84381 
 H                    -1   -3.23711   1.78521  -1.61343 
 H                    -1   -3.48065   1.79569   0.84624 
 H                    -1    0.95267  -2.73152   1.89375 
 H                    -1    0.48619  -3.87108  -0.22123 
 H                    -1   -2.55942  -0.95455   1.9892 
 H                    -1   -3.13526  -3.00618   0.12953 
 Co                   0    -1.61442  -1.08913  -1.2416 
 

 GradGradGradGradGradGradGradGradGradGradGradGradGradGradGradGradGradGrad
 Berny optimization.
 Initialization pass.
                           ----------------------------
                           !    Initial Parameters    !
                           ! (Angstroms and Degrees)  !
 --------------------------                            --------------------------
 ! Name  Definition              Value          Derivative Info.                !
 --------------------------------------------------------------------------------
 ! X13   R(13,-1)                4.1316         Frozen                          !
 ! Y13   R(13,-2)               -1.8899         Frozen                          !
 ! Z13   R(13,-3)                0.4995         Frozen                          !
 ! X14   R(14,-1)                3.6496         Frozen                          !
 ! Y14   R(14,-2)               -1.6534         Frozen                          !
 ! Z14   R(14,-3)               -1.8898         Frozen                          !
 ! X15   R(15,-1)                3.5662         Frozen                          !
 ! Y15   R(15,-2)                2.839          Frozen                          !
 ! Z15   R(15,-3)               -0.2699         Frozen                          !
 ! X16   R(16,-1)                3.2491         Frozen                          !
 ! Y16   R(16,-2)                1.5694         Frozen                          !
 ! Z16   R(16,-3)                1.7994         Frozen                          !
 ! X17   R(17,-1)               -0.0512         Frozen                          !
 ! Y17   R(17,-2)                3.8636         Frozen                          !
 ! Z17   R(17,-3)               -0.361          Frozen                          !
 ! X18   R(18,-1)               -0.3499         Frozen                          !
 ! Y18   R(18,-2)                2.8232         Frozen                          !
 ! Z18   R(18,-3)                1.8438         Frozen                          !
 ! X19   R(19,-1)               -3.2371         Frozen                          !
 ! Y19   R(19,-2)                1.7852         Frozen                          !
 ! Z19   R(19,-3)               -1.6134         Frozen                          !
 ! X20   R(20,-1)               -3.4807         Frozen                          !
 ! Y20   R(20,-2)                1.7957         Frozen                          !
 ! Z20   R(20,-3)                0.8462         Frozen                          !
 ! X21   R(21,-1)                0.9527         Frozen                          !
 ! Y21   R(21,-2)               -2.7315         Frozen                          !
 ! Z21   R(21,-3)                1.8937         Frozen                          !
 ! X22   R(22,-1)                0.4862         Frozen                          !
 ! Y22   R(22,-2)               -3.8711         Frozen                          !
 ! Z22   R(22,-3)               -0.2212         Frozen                          !
 ! X23   R(23,-1)               -2.5594         Frozen                          !
 ! Y23   R(23,-2)               -0.9545         Frozen                          !
 ! Z23   R(23,-3)                1.9892         Frozen                          !
 ! X24   R(24,-1)               -3.1353         Frozen                          !
 ! Y24   R(24,-2)               -3.0062         Frozen                          !
 ! Z24   R(24,-3)                0.1295         Frozen                          !
 ! R1    R(1,7)                  1.609          estimate D2E/DX2                !
 ! R2    R(1,9)                  1.6125         estimate D2E/DX2                !
 ! R3    R(2,10)                 1.6361         estimate D2E/DX2                !
 ! R4    R(2,12)                 1.6968         estimate D2E/DX2                !
 ! R5    R(2,25)                 1.9881         estimate D2E/DX2                !
 ! R6    R(3,7)                  1.6073         estimate D2E/DX2                !
 ! R7    R(3,11)                 1.6105         estimate D2E/DX2                !
 ! R8    R(4,8)                  1.6112         estimate D2E/DX2                !
 ! R9    R(4,12)                 1.6771         estimate D2E/DX2                !
 ! R10   R(4,25)                 1.9295         estimate D2E/DX2                !
 ! R11   R(5,8)                  1.6095         estimate D2E/DX2                !
 ! R12   R(5,9)                  1.609          estimate D2E/DX2                !
 ! R13   R(6,10)                 1.6678         estimate D2E/DX2                !
 ! R14   R(6,11)                 1.6095         estimate D2E/DX2                !
 ! R15   R(7,15)                 1.4783         estimate D2E/DX2                !
 ! R16   R(7,16)                 1.4813         estimate D2E/DX2                !
 ! R17   R(8,21)                 1.4809         estimate D2E/DX2                !
 ! R18   R(8,22)                 1.4793         estimate D2E/DX2                !
 ! R19   R(9,13)                 1.4819         estimate D2E/DX2                !
 ! R20   R(9,14)                 1.4771         estimate D2E/DX2                !
 ! R21   R(10,12)                2.9089         estimate D2E/DX2                !
 ! R22   R(10,19)                1.4784         estimate D2E/DX2                !
 ! R23   R(10,20)                1.4766         estimate D2E/DX2                !
 ! R24   R(10,25)                2.7275         estimate D2E/DX2                !
 ! R25   R(11,17)                1.4775         estimate D2E/DX2                !
 ! R26   R(11,18)                1.4768         estimate D2E/DX2                !
 ! R27   R(12,23)                1.6264         estimate D2E/DX2                !
 ! R28   R(12,24)                1.5977         estimate D2E/DX2                !
 ! R29   R(12,25)                2.007          estimate D2E/DX2                !
 ! A1    A(7,1,9)              145.8313         estimate D2E/DX2                !
 ! A2    A(7,3,11)             153.806          estimate D2E/DX2                !
 ! A3    A(8,4,12)             156.5555         estimate D2E/DX2                !
 ! A4    A(8,4,25)             125.9493         estimate D2E/DX2                !
 ! A5    A(8,5,9)              153.273          estimate D2E/DX2                !
 ! A6    A(10,6,11)            155.4534         estimate D2E/DX2                !
 ! A7    A(1,7,3)              109.5391         estimate D2E/DX2                !
 ! A8    A(1,7,15)             108.3666         estimate D2E/DX2                !
 ! A9    A(1,7,16)             110.0256         estimate D2E/DX2                !
 ! A10   A(3,7,15)             109.0776         estimate D2E/DX2                !
 ! A11   A(3,7,16)             108.1723         estimate D2E/DX2                !
 ! A12   A(15,7,16)            111.6379         estimate D2E/DX2                !
 ! A13   A(4,8,5)              109.3858         estimate D2E/DX2                !
 ! A14   A(4,8,21)             108.9818         estimate D2E/DX2                !
 ! A15   A(4,8,22)             109.4563         estimate D2E/DX2                !
 ! A16   A(5,8,21)             108.6692         estimate D2E/DX2                !
 ! A17   A(5,8,22)             108.7892         estimate D2E/DX2                !
 ! A18   A(21,8,22)            111.5298         estimate D2E/DX2                !
 ! A19   A(1,9,5)              109.5307         estimate D2E/DX2                !
 ! A20   A(1,9,13)             109.1803         estimate D2E/DX2                !
 ! A21   A(1,9,14)             107.7951         estimate D2E/DX2                !
 ! A22   A(5,9,13)             109.2526         estimate D2E/DX2                !
 ! A23   A(5,9,14)             109.3447         estimate D2E/DX2                !
 ! A24   A(13,9,14)            111.7058         estimate D2E/DX2                !
 ! A25   A(2,10,6)             124.5535         estimate D2E/DX2                !
 ! A26   A(2,10,19)            106.8724         estimate D2E/DX2                !
 ! A27   A(2,10,20)            109.2624         estimate D2E/DX2                !
 ! A28   A(6,10,12)             99.4682         estimate D2E/DX2                !
 ! A29   A(6,10,19)            100.8145         estimate D2E/DX2                !
 ! A30   A(6,10,20)            101.7844         estimate D2E/DX2                !
 ! A31   A(6,10,25)             82.4809         estimate D2E/DX2                !
 ! A32   A(12,10,19)           132.6157         estimate D2E/DX2                !
 ! A33   A(12,10,20)           103.4285         estimate D2E/DX2                !
 ! A34   A(19,10,20)           113.5364         estimate D2E/DX2                !
 ! A35   A(19,10,25)           100.0575         estimate D2E/DX2                !
 ! A36   A(20,10,25)           144.3376         estimate D2E/DX2                !
 ! A37   A(3,11,6)             109.3475         estimate D2E/DX2                !
 ! A38   A(3,11,17)            109.7463         estimate D2E/DX2                !
 ! A39   A(3,11,18)            110.0317         estimate D2E/DX2                !
 ! A40   A(6,11,17)            107.1228         estimate D2E/DX2                !
 ! A41   A(6,11,18)            108.0113         estimate D2E/DX2                !
 ! A42   A(17,11,18)           112.4855         estimate D2E/DX2                !
 ! A43   A(2,12,4)             120.7058         estimate D2E/DX2                !
 ! A44   A(2,12,23)            100.7493         estimate D2E/DX2                !
 ! A45   A(2,12,24)            107.5497         estimate D2E/DX2                !
 ! A46   A(4,12,10)            102.3002         estimate D2E/DX2                !
 ! A47   A(4,12,23)             99.5209         estimate D2E/DX2                !
 ! A48   A(4,12,24)            106.6994         estimate D2E/DX2                !
 ! A49   A(10,12,23)            83.037          estimate D2E/DX2                !
 ! A50   A(10,12,24)           136.1594         estimate D2E/DX2                !
 ! A51   A(23,12,24)           122.6185         estimate D2E/DX2                !
 ! A52   A(23,12,25)           135.7506         estimate D2E/DX2                !
 ! A53   A(24,12,25)           101.5806         estimate D2E/DX2                !
 ! A54   A(2,25,4)              96.9063         estimate D2E/DX2                !
 ! A55   A(4,25,10)            102.0135         estimate D2E/DX2                !
 ! D1    D(9,1,7,3)            -59.3142         estimate D2E/DX2                !
 ! D2    D(9,1,7,15)          -178.2129         estimate D2E/DX2                !
 ! D3    D(9,1,7,16)            59.4742         estimate D2E/DX2                !
 ! D4    D(7,1,9,5)             37.8136         estimate D2E/DX2                !
 ! D5    D(7,1,9,13)           -81.7782         estimate D2E/DX2                !
 ! D6    D(7,1,9,14)           156.6945         estimate D2E/DX2                !
 ! D7    D(10,2,12,25)         -83.11           estimate D2E/DX2                !
 ! D8    D(11,3,7,1)          -172.6348         estimate D2E/DX2                !
 ! D9    D(11,3,7,15)          -54.1766         estimate D2E/DX2                !
 ! D10   D(11,3,7,16)           67.4359         estimate D2E/DX2                !
 ! D11   D(7,3,11,6)           179.0201         estimate D2E/DX2                !
 ! D12   D(7,3,11,17)           61.7891         estimate D2E/DX2                !
 ! D13   D(7,3,11,18)          -62.5011         estimate D2E/DX2                !
 ! D14   D(12,4,8,5)           169.6053         estimate D2E/DX2                !
 ! D15   D(12,4,8,21)          -71.7163         estimate D2E/DX2                !
 ! D16   D(12,4,8,22)           50.4992         estimate D2E/DX2                !
 ! D17   D(25,4,8,5)            51.622          estimate D2E/DX2                !
 ! D18   D(25,4,8,21)          170.3003         estimate D2E/DX2                !
 ! D19   D(25,4,8,22)          -67.4842         estimate D2E/DX2                !
 ! D20   D(8,4,12,2)          -157.5582         estimate D2E/DX2                !
 ! D21   D(8,4,12,10)          178.6855         estimate D2E/DX2                !
 ! D22   D(8,4,12,23)           93.8054         estimate D2E/DX2                !
 ! D23   D(8,4,12,24)          -34.5805         estimate D2E/DX2                !
 ! D24   D(8,4,25,2)           178.1847         estimate D2E/DX2                !
 ! D25   D(8,4,25,10)         -145.1182         estimate D2E/DX2                !
 ! D26   D(9,5,8,4)            158.5748         estimate D2E/DX2                !
 ! D27   D(9,5,8,21)            39.7024         estimate D2E/DX2                !
 ! D28   D(9,5,8,22)           -81.9071         estimate D2E/DX2                !
 ! D29   D(8,5,9,1)           -129.7534         estimate D2E/DX2                !
 ! D30   D(8,5,9,13)           -10.206          estimate D2E/DX2                !
 ! D31   D(8,5,9,14)           112.3286         estimate D2E/DX2                !
 ! D32   D(11,6,10,2)         -133.8065         estimate D2E/DX2                !
 ! D33   D(11,6,10,12)        -116.2236         estimate D2E/DX2                !
 ! D34   D(11,6,10,19)         106.8314         estimate D2E/DX2                !
 ! D35   D(11,6,10,20)         -10.2437         estimate D2E/DX2                !
 ! D36   D(11,6,10,25)        -154.3026         estimate D2E/DX2                !
 ! D37   D(10,6,11,3)          153.8248         estimate D2E/DX2                !
 ! D38   D(10,6,11,17)         -87.303          estimate D2E/DX2                !
 ! D39   D(10,6,11,18)          34.0948         estimate D2E/DX2                !
 ! D40   D(6,10,12,4)          -16.2407         estimate D2E/DX2                !
 ! D41   D(6,10,12,23)          82.0342         estimate D2E/DX2                !
 ! D42   D(6,10,12,24)        -146.9067         estimate D2E/DX2                !
 ! D43   D(19,10,12,4)          98.0851         estimate D2E/DX2                !
 ! D44   D(19,10,12,23)       -163.6401         estimate D2E/DX2                !
 ! D45   D(19,10,12,24)        -32.581          estimate D2E/DX2                !
 ! D46   D(20,10,12,4)        -120.8773         estimate D2E/DX2                !
 ! D47   D(20,10,12,23)        -22.6025         estimate D2E/DX2                !
 ! D48   D(20,10,12,24)        108.4566         estimate D2E/DX2                !
 ! D49   D(6,10,25,4)           71.1329         estimate D2E/DX2                !
 ! D50   D(19,10,25,4)         170.8511         estimate D2E/DX2                !
 ! D51   D(20,10,25,4)         -28.62           estimate D2E/DX2                !
 --------------------------------------------------------------------------------
 Trust Radius=3.00D-01 FncErr=1.00D-07 GrdErr=1.00D-06
 Number of steps in this run=    150 maximum allowed number of steps=    150.
 GradGradGradGradGradGradGradGradGradGradGradGradGradGradGradGradGradGrad

                          Input orientation:                          
 ---------------------------------------------------------------------
 Center     Atomic      Atomic             Coordinates (Angstroms)
 Number     Number       Type             X           Y           Z
 ---------------------------------------------------------------------
      1          8           0        3.394708    0.344291   -0.412650
      2          8           0       -3.283275   -0.406225   -0.404313
      3          8           0        1.319848    1.824009    0.225908
      4          8           0       -0.817365   -1.791551    0.369085
      5          8           0        1.733869   -1.690510   -0.254637
      6          8           0       -1.271094    1.705610   -0.191859
      7         14           0        2.914275    1.671315    0.360085
      8         14           0        0.592160   -2.565893    0.466993
      9         14           0        3.260972   -1.259037   -0.520430
     10         14           0       -2.843926    1.167998   -0.328906
     11         14           0       -0.077730    2.602978    0.409067
     12         13           0       -2.478217   -1.597024    0.497324
     13          1           0        4.131576   -1.889881    0.499480
     14          1           0        3.649569   -1.653392   -1.889806
     15          1           0        3.566225    2.839014   -0.269933
     16          1           0        3.249104    1.569440    1.799417
     17          1           0       -0.051217    3.863613   -0.361013
     18          1           0       -0.349900    2.823171    1.843808
     19          1           0       -3.237109    1.785214   -1.613434
     20          1           0       -3.480653    1.795692    0.846235
     21          1           0        0.952672   -2.731515    1.893747
     22          1           0        0.486187   -3.871084   -0.221230
     23          1           0       -2.559422   -0.954549    1.989201
     24          1           0       -3.135264   -3.006180    0.129534
     25         27           0       -1.614420   -1.089126   -1.241595
 ---------------------------------------------------------------------
                    Distance matrix (angstroms):
                    1          2          3          4          5
     1  O    0.000000
     2  O    6.720030   0.000000
     3  O    2.627235   5.153626   0.000000
     4  O    4.786908   2.932232   4.202434   0.000000
     5  O    2.631306   5.181074   3.571300   2.628314   0.000000
     6  O    4.865352   2.924698   2.627076   3.570807   4.535127
     7  Si   1.609015   6.581041   1.607332   5.090841   3.615675
     8  Si   4.134878   4.521320   4.456332   1.611196   1.609517
     9  Si   1.612502   6.600602   3.718892   4.208045   1.608993
    10  Si   6.293335   1.636121   4.251492   3.654185   5.397480
    11  Si   4.223116   4.471287   1.610455   4.456517   4.707062
    12  Al   6.252040   1.696782   5.118831   1.677115   4.279702
    13  H    2.523188   7.615648   4.666223   4.951635   2.521396
    14  H    2.497535   7.199058   4.690007   5.007512   2.518941
    15  H    2.504681   7.580586   2.514419   6.408302   4.886139
    16  H    2.532870   7.171587   2.502552   5.466103   4.140332
    17  H    4.925717   5.355333   2.526713   5.753339   5.834906
    18  H    5.025787   4.907926   2.530609   4.867134   5.396191
    19  H    6.891962   2.503300   4.914320   4.751714   6.215916
    20  H    7.138764   2.539934   4.840498   4.493227   6.368419
    21  H    4.554513   5.350822   4.865111   2.518166   2.511875
    22  H    5.124990   5.123242   5.773128   2.524317   2.512515
    23  H    6.550385   2.559987   5.087074   2.521926   4.899877
    24  H    7.359358   2.658320   6.571761   2.627806   5.058362
    25  Co   5.275718   1.988082   4.387465   1.929505   3.542145
                    6          7          8          9         10
     6  O    0.000000
     7  Si   4.221745   0.000000
     8  Si   4.706542   4.832968   0.000000
     9  Si   5.425561   3.079362   3.131363   0.000000
    10  Si   1.667816   5.821075   5.136349   6.572439   0.000000
    11  Si   1.609503   3.134085   5.212421   5.189032   3.202438
    12  Al   3.583226   6.307126   3.219758   5.838523   2.908908
    13  H    6.526435   3.766081   3.603542   1.481935   7.661232
    14  H    6.195066   4.081218   3.966725   1.477063   7.249974
    15  H    4.968939   1.478338   6.212982   4.117032   6.624636
    16  H    4.941246   1.481272   5.092709   3.658157   6.466524
    17  H    2.484691   3.757698   6.514451   6.102258   3.881571
    18  H    2.498296   3.766038   5.641375   5.940744   3.698709
    19  H    2.427432   6.461213   6.158215   7.258593   1.478364
    20  H    2.442930   6.414586   5.979553   7.526530   1.476610
    21  H    5.383583   5.058154   1.480887   3.650300   5.878822
    22  H    5.847086   6.078793   1.479326   3.822531   6.040993
    23  H    3.673317   6.285741   3.853053   6.345703   3.155910
    24  H    5.077341   7.650427   3.768477   6.662342   4.209371
    25  Co   3.005057   5.540261   3.157390   4.931369   2.727507
                   11         12         13         14         15
    11  Si   0.000000
    12  Al   4.838403   0.000000
    13  H    6.157289   6.616278   0.000000
    14  H    6.106903   6.576574   2.448866   0.000000
    15  H    3.714184   7.536736   4.824320   4.776259   0.000000
    16  H    3.750880   6.672642   3.799407   4.915016   2.448386
    17  H    1.477473   6.037021   7.165117   6.816918   3.760849
    18  H    1.476836   5.087325   6.641062   7.069317   4.450190
    19  H    3.839391   4.058417   8.501073   7.702384   7.014331
    20  H    3.524587   3.554875   8.464616   8.379867   7.210606
    21  H    5.632301   3.874025   3.571801   4.769788   6.522497
    22  H    6.529070   3.804650   4.211110   4.208241   7.383388
    23  H    4.616451   1.626366   6.918350   7.354362   7.551050
    24  H    6.394475   1.597717   7.361382   7.207061   8.901451
    25  Co   4.326400   2.006974   6.057146   5.333681   6.573697
                   16         17         18         19         20
    16  H    0.000000
    17  H    4.563201   0.000000
    18  H    3.811383   2.456210   0.000000
    19  H    7.332467   4.004773   4.622321   0.000000
    20  H    6.800689   4.182676   3.442743   2.471719   0.000000
    21  H    4.876547   7.041836   5.705587   7.089106   6.422403
    22  H    6.427754   7.754604   7.055244   6.913384   6.999118
    23  H    6.336049   5.918554   4.378846   4.576521   3.117509
    24  H    8.030253   7.546260   6.684184   5.099585   4.867333
    25  Co   6.322151   5.267699   5.140505   3.321628   4.020452
                   21         22         23         24         25
    21  H    0.000000
    22  H    2.447316   0.000000
    23  H    3.937197   4.761083   0.000000
    24  H    4.460842   3.739786   2.828276   0.000000
    25  Co   4.372387   3.632215   3.368855   2.805006   0.000000
 Stoichiometry    AlCoH12O6Si5
 Framework group  C1[X(AlCoH12O6Si5)]
 Deg. of freedom    69
 Full point group                 C1      NOp   1
 Largest Abelian subgroup         C1      NOp   1
 Largest concise Abelian subgroup C1      NOp   1
                         Standard orientation:                         
 ---------------------------------------------------------------------
 Center     Atomic      Atomic             Coordinates (Angstroms)
 Number     Number       Type             X           Y           Z
 ---------------------------------------------------------------------
      1          8           0        3.469216    0.046604   -0.476617
      2          8           0       -3.239785    0.143386   -0.104137
      3          8           0        1.629162    1.812732    0.153745
      4          8           0       -0.923021   -1.489216    0.647662
      5          8           0        1.583231   -1.749239   -0.100084
      6          8           0       -0.975836    1.994749   -0.133275
      7         14           0        3.197897    1.469643    0.223578
      8         14           0        0.384467   -2.426824    0.733216
      9         14           0        3.134691   -1.530783   -0.466288
     10         14           0       -2.607746    1.651501   -0.158979
     11         14           0        0.349537    2.771181    0.347391
     12         13           0       -2.538034   -1.079779    0.839518
     13          1           0        3.976377   -2.200326    0.553227
     14          1           0        3.396248   -2.056588   -1.821586
     15          1           0        3.952110    2.503981   -0.515876
     16          1           0        3.596398    1.417651    1.649291
     17          1           0        0.487623    3.967286   -0.508875
     18          1           0        0.185652    3.114053    1.774494
     19          1           0       -2.992540    2.230826   -1.463539
     20          1           0       -3.097338    2.427237    0.998135
     21          1           0        0.799931   -2.545952    2.149628
     22          1           0        0.081993   -3.749206    0.143114
     23          1           0       -2.457895   -0.339214    2.285273
     24          1           0       -3.381698   -2.415583    0.601698
     25         27           0       -1.715556   -0.795379   -0.968960
 ---------------------------------------------------------------------
 Rotational constants (GHZ):      0.4734501      0.2797461      0.1941488
 Standard basis: 6-31+G(d) (6D, 7F)
 There are   328 symmetry adapted cartesian basis functions of A   symmetry.
 There are   325 symmetry adapted basis functions of A   symmetry.
   325 basis functions,   693 primitive gaussians,   328 cartesian basis functions
    85 alpha electrons       85 beta electrons
       nuclear repulsion energy      2099.5992019947 Hartrees.
 NAtoms=   25 NActive=   25 NUniq=   25 SFac= 1.00D+00 NAtFMM=   60 NAOKFM=F Big=F
 Integral buffers will be    131072 words long.
 Raffenetti 2 integral format.
 Two-electron integral symmetry is turned on.
 Nuclear repulsion after empirical dispersion term =     2099.5671033232 Hartrees.
 One-electron integrals computed using PRISM.
 NBasis=   325 RedAO= T EigKep=  9.52D-05  NBF=   325
 NBsUse=   322 1.00D-06 EigRej=  8.57D-07 NBFU=   322
 ExpMin= 1.33D-02 ExpMax= 6.61D+04 ExpMxC= 9.93D+03 IAcc=3 IRadAn=         5 AccDes= 0.00D+00
 Harris functional with IExCor=  402 and IRadAn=       5 diagonalized for initial guess.
 HarFok:  IExCor=  402 AccDes= 0.00D+00 IRadAn=         5 IDoV= 1 UseB2=F ITyADJ=14
 ICtDFT=  3500011 ScaDFX=  1.000000  1.000000  1.000000  1.000000
 FoFCou: FMM=F IPFlag=           0 FMFlag=      100000 FMFlg1=           0
         NFxFlg=           0 DoJE=T BraDBF=F KetDBF=T FulRan=T
         wScrn=  0.000000 ICntrl=     500 IOpCl=  0 I1Cent=   200000004 NGrid=           0
         NMat0=    1 NMatS0=      1 NMatT0=    0 NMatD0=    1 NMtDS0=    0 NMtDT0=    0
 Petite list used in FoFCou.
 Mixing orbitals, IMix= 1 IMixAn=  0 NRI=1 NE=   85 Coef=  7.07106781D-01  7.07106781D-01
 Mixing orbitals, IMix= 1 IMixAn=  0 NRI=1 NE=   85 Coef= -7.07106781D-01  7.07106781D-01
 Initial guess <Sx>= 0.0000 <Sy>= 0.0000 <Sz>= 0.0000 <S**2>= 1.0000 S= 0.6180
 Requested convergence on RMS density matrix=1.00D-08 within  64 cycles.
 Requested convergence on MAX density matrix=1.00D-06.
 Requested convergence on             energy=1.00D-06.
 No special actions if energy rises.
 Restarting incremental Fock formation.
 Restarting incremental Fock formation.
 SCF Done:  E(UB3LYP) =  -3531.59230053     A.U. after   44 cycles
            NFock= 44  Conv=0.91D-08     -V/T= 2.0033
 <Sx>= 0.0000 <Sy>= 0.0000 <Sz>= 0.0000 <S**2>= 0.9781 S= 0.6082
 <L.S>= 0.000000000000E+00
 Annihilation of the first spin contaminant:
 S**2 before annihilation     0.9781,   after     0.0107
 QCSCF skips out because SCF is already converged.

 **********************************************************************

            Population analysis using the SCF density.

 **********************************************************************

 Orbital symmetries:
 Alpha Orbitals:
       Occupied  (A) (A) (A) (A) (A) (A) (A) (A) (A) (A) (A) (A)
                 (A) (A) (A) (A) (A) (A) (A) (A) (A) (A) (A) (A)
                 (A) (A) (A) (A) (A) (A) (A) (A) (A) (A) (A) (A)
                 (A) (A) (A) (A) (A) (A) (A) (A) (A) (A) (A) (A)
                 (A) (A) (A) (A) (A) (A) (A) (A) (A) (A) (A) (A)
                 (A) (A) (A) (A) (A) (A) (A) (A) (A) (A) (A) (A)
                 (A) (A) (A) (A) (A) (A) (A) (A) (A) (A) (A) (A)
                 (A)
       Virtual   (A) (A) (A) (A) (A) (A) (A) (A) (A) (A) (A) (A)
                 (A) (A) (A) (A) (A) (A) (A) (A) (A) (A) (A) (A)
                 (A) (A) (A) (A) (A) (A) (A) (A) (A) (A) (A) (A)
                 (A) (A) (A) (A) (A) (A) (A) (A) (A) (A) (A) (A)
                 (A) (A) (A) (A) (A) (A) (A) (A) (A) (A) (A) (A)
                 (A) (A) (A) (A) (A) (A) (A) (A) (A) (A) (A) (A)
                 (A) (A) (A) (A) (A) (A) (A) (A) (A) (A) (A) (A)
                 (A) (A) (A) (A) (A) (A) (A) (A) (A) (A) (A) (A)
                 (A) (A) (A) (A) (A) (A) (A) (A) (A) (A) (A) (A)
                 (A) (A) (A) (A) (A) (A) (A) (A) (A) (A) (A) (A)
                 (A) (A) (A) (A) (A) (A) (A) (A) (A) (A) (A) (A)
                 (A) (A) (A) (A) (A) (A) (A) (A) (A) (A) (A) (A)
                 (A) (A) (A) (A) (A) (A) (A) (A) (A) (A) (A) (A)
                 (A) (A) (A) (A) (A) (A) (A) (A) (A) (A) (A) (A)
                 (A) (A) (A) (A) (A) (A) (A) (A) (A) (A) (A) (A)
                 (A) (A) (A) (A) (A) (A) (A) (A) (A) (A) (A) (A)
                 (A) (A) (A) (A) (A) (A) (A) (A) (A) (A) (A) (A)
                 (A) (A) (A) (A) (A) (A) (A) (A) (A) (A) (A) (A)
                 (A) (A) (A) (A) (A) (A) (A) (A) (A) (A) (A) (A)
                 (A) (A) (A) (A) (A) (A) (A) (A) (A)
 Beta  Orbitals:
       Occupied  (A) (A) (A) (A) (A) (A) (A) (A) (A) (A) (A) (A)
                 (A) (A) (A) (A) (A) (A) (A) (A) (A) (A) (A) (A)
                 (A) (A) (A) (A) (A) (A) (A) (A) (A) (A) (A) (A)
                 (A) (A) (A) (A) (A) (A) (A) (A) (A) (A) (A) (A)
                 (A) (A) (A) (A) (A) (A) (A) (A) (A) (A) (A) (A)
                 (A) (A) (A) (A) (A) (A) (A) (A) (A) (A) (A) (A)
                 (A) (A) (A) (A) (A) (A) (A) (A) (A) (A) (A) (A)
                 (A)
       Virtual   (A) (A) (A) (A) (A) (A) (A) (A) (A) (A) (A) (A)
                 (A) (A) (A) (A) (A) (A) (A) (A) (A) (A) (A) (A)
                 (A) (A) (A) (A) (A) (A) (A) (A) (A) (A) (A) (A)
                 (A) (A) (A) (A) (A) (A) (A) (A) (A) (A) (A) (A)
                 (A) (A) (A) (A) (A) (A) (A) (A) (A) (A) (A) (A)
                 (A) (A) (A) (A) (A) (A) (A) (A) (A) (A) (A) (A)
                 (A) (A) (A) (A) (A) (A) (A) (A) (A) (A) (A) (A)
                 (A) (A) (A) (A) (A) (A) (A) (A) (A) (A) (A) (A)
                 (A) (A) (A) (A) (A) (A) (A) (A) (A) (A) (A) (A)
                 (A) (A) (A) (A) (A) (A) (A) (A) (A) (A) (A) (A)
                 (A) (A) (A) (A) (A) (A) (A) (A) (A) (A) (A) (A)
                 (A) (A) (A) (A) (A) (A) (A) (A) (A) (A) (A) (A)
                 (A) (A) (A) (A) (A) (A) (A) (A) (A) (A) (A) (A)
                 (A) (A) (A) (A) (A) (A) (A) (A) (A) (A) (A) (A)
                 (A) (A) (A) (A) (A) (A) (A) (A) (A) (A) (A) (A)
                 (A) (A) (A) (A) (A) (A) (A) (A) (A) (A) (A) (A)
                 (A) (A) (A) (A) (A) (A) (A) (A) (A) (A) (A) (A)
                 (A) (A) (A) (A) (A) (A) (A) (A) (A) (A) (A) (A)
                 (A) (A) (A) (A) (A) (A) (A) (A) (A) (A) (A) (A)
                 (A) (A) (A) (A) (A) (A) (A) (A) (A)
 The electronic state is 1-A.
 Alpha  occ. eigenvalues -- -277.54579 -66.19775 -66.19774 -66.19453 -66.19349
 Alpha  occ. eigenvalues --  -66.19285 -56.01068 -32.86423 -28.52288 -28.51036
 Alpha  occ. eigenvalues --  -28.50316 -19.18445 -19.17774 -19.17631 -19.17230
 Alpha  occ. eigenvalues --  -19.17211 -19.17118  -5.33953  -5.33811  -5.33683
 Alpha  occ. eigenvalues --   -5.33540  -5.33430  -4.10627  -3.74222  -3.70054
 Alpha  occ. eigenvalues --   -3.69863  -3.69854  -3.69774  -3.69758  -3.69648
 Alpha  occ. eigenvalues --   -3.69630  -3.69603  -3.69513  -3.69488  -3.69451
 Alpha  occ. eigenvalues --   -3.69374  -3.69364  -3.69236  -3.69116  -2.66238
 Alpha  occ. eigenvalues --   -2.65995  -2.65507  -2.45956  -2.41714  -2.39893
 Alpha  occ. eigenvalues --   -1.04821  -1.03681  -1.03381  -1.02033  -1.01440
 Alpha  occ. eigenvalues --   -1.00589  -0.64544  -0.62608  -0.59680  -0.55765
 Alpha  occ. eigenvalues --   -0.54266  -0.50734  -0.49123  -0.47369  -0.46495
 Alpha  occ. eigenvalues --   -0.46122  -0.45038  -0.44477  -0.44337  -0.43288
 Alpha  occ. eigenvalues --   -0.42341  -0.41476  -0.40719  -0.40532  -0.39276
 Alpha  occ. eigenvalues --   -0.38561  -0.37170  -0.36794  -0.36244  -0.34990
 Alpha  occ. eigenvalues --   -0.33481  -0.32324  -0.31659  -0.31014  -0.30546
 Alpha  occ. eigenvalues --   -0.29793  -0.28663  -0.27579  -0.27289  -0.24372
 Alpha virt. eigenvalues --   -0.11402  -0.08890  -0.01977  -0.00949  -0.00496
 Alpha virt. eigenvalues --   -0.00134   0.00217   0.00243   0.00710   0.01192
 Alpha virt. eigenvalues --    0.01538   0.02276   0.02627   0.02972   0.03486
 Alpha virt. eigenvalues --    0.04001   0.04341   0.04972   0.05037   0.05339
 Alpha virt. eigenvalues --    0.05441   0.05710   0.05957   0.06316   0.06417
 Alpha virt. eigenvalues --    0.07466   0.07916   0.08395   0.09064   0.09343
 Alpha virt. eigenvalues --    0.09890   0.10707   0.10827   0.11758   0.11945
 Alpha virt. eigenvalues --    0.12470   0.12929   0.13328   0.13804   0.13961
 Alpha virt. eigenvalues --    0.14100   0.14608   0.15261   0.15399   0.15868
 Alpha virt. eigenvalues --    0.16235   0.16494   0.17043   0.17310   0.18978
 Alpha virt. eigenvalues --    0.19125   0.19730   0.20577   0.21147   0.22170
 Alpha virt. eigenvalues --    0.22921   0.23677   0.23992   0.25142   0.25269
 Alpha virt. eigenvalues --    0.25634   0.25906   0.26064   0.27261   0.27585
 Alpha virt. eigenvalues --    0.28513   0.28634   0.28906   0.30055   0.30127
 Alpha virt. eigenvalues --    0.31108   0.31535   0.32025   0.32724   0.33248
 Alpha virt. eigenvalues --    0.33535   0.34294   0.35042   0.35876   0.36578
 Alpha virt. eigenvalues --    0.37128   0.37291   0.37930   0.38138   0.38941
 Alpha virt. eigenvalues --    0.39158   0.40846   0.41204   0.42074   0.42918
 Alpha virt. eigenvalues --    0.43234   0.44039   0.44540   0.44864   0.45698
 Alpha virt. eigenvalues --    0.46885   0.48203   0.49403   0.50337   0.50895
 Alpha virt. eigenvalues --    0.52573   0.54294   0.55571   0.57295   0.58739
 Alpha virt. eigenvalues --    0.60572   0.62055   0.63070   0.64227   0.65394
 Alpha virt. eigenvalues --    0.66417   0.68494   0.68988   0.70286   0.70697
 Alpha virt. eigenvalues --    0.71163   0.71904   0.72488   0.72889   0.74057
 Alpha virt. eigenvalues --    0.74425   0.74912   0.75649   0.75747   0.76005
 Alpha virt. eigenvalues --    0.77344   0.78480   0.80189   0.81150   0.82459
 Alpha virt. eigenvalues --    0.83741   0.84512   0.85234   0.85999   0.88044
 Alpha virt. eigenvalues --    0.92458   0.93630   1.01647   1.03641   1.04897
 Alpha virt. eigenvalues --    1.12331   1.15105   1.16942   1.17255   1.18734
 Alpha virt. eigenvalues --    1.19608   1.20207   1.20563   1.21245   1.23065
 Alpha virt. eigenvalues --    1.24175   1.24495   1.24824   1.27212   1.27952
 Alpha virt. eigenvalues --    1.29113   1.30591   1.32261   1.33030   1.34150
 Alpha virt. eigenvalues --    1.35800   1.37858   1.38054   1.39507   1.40151
 Alpha virt. eigenvalues --    1.42524   1.43651   1.50237   1.52451   1.54821
 Alpha virt. eigenvalues --    1.57484   1.58208   1.59815   1.60420   1.63154
 Alpha virt. eigenvalues --    1.66762   1.70338   1.72112   1.74008   1.77100
 Alpha virt. eigenvalues --    1.78691   1.79909   1.80526   1.81172   1.82688
 Alpha virt. eigenvalues --    1.83726   1.84316   1.85820   1.86042   1.87538
 Alpha virt. eigenvalues --    1.88783   1.93179   1.94873   1.98467   1.99631
 Alpha virt. eigenvalues --    2.01267   2.01738   2.05098   2.05320   2.10485
 Alpha virt. eigenvalues --    2.12935   2.19755   2.21577   2.31463   2.32335
 Alpha virt. eigenvalues --    2.34927   2.35449   2.36605   2.39053   2.40614
 Alpha virt. eigenvalues --    2.41942   2.48057   2.52704   2.61034   2.71106
 Alpha virt. eigenvalues --    2.74411   2.77368   2.81609   2.84117   2.88172
 Alpha virt. eigenvalues --    2.91983   2.93865   2.94107   2.99126   3.01020
 Alpha virt. eigenvalues --    3.04283   3.05721   3.19959   3.27720   3.28889
 Alpha virt. eigenvalues --    4.07599   4.14467   4.18193   4.21888   4.37436
 Alpha virt. eigenvalues --    4.49018  26.65984
  Beta  occ. eigenvalues -- -277.54581 -66.19774 -66.19774 -66.19453 -66.19349
  Beta  occ. eigenvalues --  -66.19285 -56.01068 -32.86403 -28.52353 -28.50823
  Beta  occ. eigenvalues --  -28.50413 -19.18416 -19.17774 -19.17656 -19.17226
  Beta  occ. eigenvalues --  -19.17211 -19.17118  -5.33953  -5.33810  -5.33683
  Beta  occ. eigenvalues --   -5.33540  -5.33430  -4.10627  -3.74179  -3.70054
  Beta  occ. eigenvalues --   -3.69859  -3.69854  -3.69773  -3.69757  -3.69648
  Beta  occ. eigenvalues --   -3.69630  -3.69603  -3.69512  -3.69487  -3.69451
  Beta  occ. eigenvalues --   -3.69375  -3.69364  -3.69236  -3.69116  -2.66240
  Beta  occ. eigenvalues --   -2.65995  -2.65508  -2.45955  -2.41694  -2.39765
  Beta  occ. eigenvalues --   -1.04829  -1.03687  -1.03344  -1.02027  -1.01468
  Beta  occ. eigenvalues --   -1.00581  -0.64548  -0.62613  -0.59694  -0.55803
  Beta  occ. eigenvalues --   -0.54260  -0.50782  -0.49126  -0.47367  -0.46551
  Beta  occ. eigenvalues --   -0.46116  -0.44982  -0.44627  -0.44066  -0.43235
  Beta  occ. eigenvalues --   -0.42412  -0.41508  -0.40788  -0.40225  -0.39269
  Beta  occ. eigenvalues --   -0.38556  -0.37235  -0.36699  -0.36258  -0.35002
  Beta  occ. eigenvalues --   -0.33605  -0.32347  -0.31608  -0.30899  -0.30734
  Beta  occ. eigenvalues --   -0.29760  -0.28590  -0.28115  -0.26946  -0.24268
  Beta virt. eigenvalues --   -0.11147  -0.09034  -0.01982  -0.00860  -0.00511
  Beta virt. eigenvalues --   -0.00148   0.00188   0.00306   0.00731   0.01198
  Beta virt. eigenvalues --    0.01575   0.02276   0.02647   0.02964   0.03485
  Beta virt. eigenvalues --    0.03988   0.04311   0.04897   0.05022   0.05328
  Beta virt. eigenvalues --    0.05469   0.05705   0.05951   0.06255   0.06423
  Beta virt. eigenvalues --    0.07470   0.07875   0.08509   0.09051   0.09361
  Beta virt. eigenvalues --    0.09896   0.10697   0.10832   0.11760   0.11931
  Beta virt. eigenvalues --    0.12465   0.12904   0.13321   0.13805   0.13958
  Beta virt. eigenvalues --    0.14118   0.14603   0.15254   0.15386   0.15845
  Beta virt. eigenvalues --    0.16230   0.16518   0.17048   0.17300   0.18958
  Beta virt. eigenvalues --    0.19161   0.19654   0.20539   0.21175   0.22121
  Beta virt. eigenvalues --    0.22871   0.23736   0.23954   0.25160   0.25275
  Beta virt. eigenvalues --    0.25619   0.25860   0.26082   0.27236   0.27614
  Beta virt. eigenvalues --    0.28570   0.28639   0.28908   0.30053   0.30156
  Beta virt. eigenvalues --    0.31098   0.31548   0.32021   0.32740   0.33254
  Beta virt. eigenvalues --    0.33523   0.34296   0.35113   0.35811   0.36576
  Beta virt. eigenvalues --    0.37120   0.37245   0.37921   0.38182   0.38930
  Beta virt. eigenvalues --    0.39173   0.40889   0.41202   0.41993   0.42911
  Beta virt. eigenvalues --    0.43207   0.44006   0.44582   0.44892   0.45733
  Beta virt. eigenvalues --    0.46915   0.48014   0.49350   0.50297   0.50997
  Beta virt. eigenvalues --    0.52685   0.54277   0.55637   0.57291   0.58787
  Beta virt. eigenvalues --    0.60579   0.62096   0.63085   0.64215   0.65403
  Beta virt. eigenvalues --    0.66418   0.68508   0.68991   0.70281   0.70609
  Beta virt. eigenvalues --    0.71148   0.71887   0.72495   0.72889   0.74045
  Beta virt. eigenvalues --    0.74445   0.74913   0.75644   0.75749   0.75999
  Beta virt. eigenvalues --    0.77335   0.78490   0.80187   0.81151   0.82449
  Beta virt. eigenvalues --    0.83750   0.84500   0.85207   0.86003   0.88050
  Beta virt. eigenvalues --    0.92480   0.93651   1.01634   1.03644   1.04900
  Beta virt. eigenvalues --    1.12325   1.15101   1.16946   1.17238   1.18753
  Beta virt. eigenvalues --    1.19608   1.20204   1.20560   1.21244   1.23076
  Beta virt. eigenvalues --    1.24168   1.24508   1.24835   1.27191   1.27935
  Beta virt. eigenvalues --    1.29124   1.30601   1.32357   1.33044   1.34186
  Beta virt. eigenvalues --    1.35852   1.37813   1.38159   1.39556   1.40007
  Beta virt. eigenvalues --    1.42224   1.43739   1.50160   1.52597   1.55000
  Beta virt. eigenvalues --    1.57487   1.58188   1.59738   1.60192   1.63154
  Beta virt. eigenvalues --    1.66850   1.70237   1.71977   1.73969   1.77037
  Beta virt. eigenvalues --    1.78642   1.79901   1.80534   1.81186   1.82661
  Beta virt. eigenvalues --    1.83795   1.84464   1.85796   1.86060   1.87520
  Beta virt. eigenvalues --    1.88782   1.93117   1.95059   1.98444   1.99740
  Beta virt. eigenvalues --    2.01323   2.01734   2.04853   2.05415   2.10536
  Beta virt. eigenvalues --    2.13497   2.20223   2.20568   2.31351   2.32329
  Beta virt. eigenvalues --    2.35096   2.36100   2.36547   2.39268   2.40142
  Beta virt. eigenvalues --    2.41622   2.48007   2.52710   2.60969   2.71296
  Beta virt. eigenvalues --    2.74379   2.77175   2.81621   2.84130   2.88172
  Beta virt. eigenvalues --    2.92570   2.94081   2.94949   2.99264   3.01076
  Beta virt. eigenvalues --    3.03123   3.05389   3.19560   3.26867   3.29958
  Beta virt. eigenvalues --    4.07602   4.14468   4.18194   4.21894   4.37424
  Beta virt. eigenvalues --    4.49059  26.66006
          Condensed to atoms (all electrons):
               1          2          3          4          5          6
     1  O    8.172043  -0.000095  -0.001002  -0.002071   0.022614  -0.001661
     2  O   -0.000095   7.950983   0.000061   0.019586   0.000581   0.064553
     3  O   -0.001002   0.000061   8.257123   0.002245  -0.024914   0.059747
     4  O   -0.002071   0.019586   0.002245   8.072272   0.048009  -0.019985
     5  O    0.022614   0.000581  -0.024914   0.048009   8.240965  -0.002462
     6  O   -0.001661   0.064553   0.059747  -0.019985  -0.002462   8.496744
     7  Si   0.138643  -0.000607  -0.111409  -0.003211   0.084267  -0.053763
     8  Si   0.013656  -0.009243  -0.002210  -0.060607   0.120574   0.002398
     9  Si   0.076696   0.001222   0.089458  -0.020705  -0.164547   0.002722
    10  Si   0.001232  -0.017008  -0.040701   0.020601  -0.007964  -0.191865
    11  Si  -0.006360   0.023927  -0.006445   0.002492  -0.008108  -0.048010
    12  Al  -0.002371   0.098164  -0.001310  -0.194709  -0.034594   0.002313
    13  H   -0.040001  -0.000001   0.000074  -0.000354  -0.033642   0.000002
    14  H   -0.017896   0.000001  -0.002771  -0.000104   0.002048   0.000019
    15  H   -0.032440   0.000001  -0.046465   0.000009   0.000610  -0.001168
    16  H   -0.049807  -0.000002  -0.004970  -0.000039  -0.005915   0.000234
    17  H   -0.001276   0.000119  -0.038525  -0.000021   0.000066  -0.032765
    18  H    0.000116  -0.001244  -0.023366  -0.000025  -0.000107  -0.047229
    19  H    0.000000  -0.029662  -0.000241   0.000069   0.000031  -0.029165
    20  H    0.000001  -0.025035  -0.000437  -0.001387   0.000013  -0.041063
    21  H   -0.001724   0.000140   0.000218  -0.032436  -0.055539  -0.000004
    22  H   -0.000165  -0.000059  -0.000019  -0.025749  -0.020743   0.000038
    23  H   -0.000007  -0.046275   0.000094  -0.035224  -0.000274  -0.011608
    24  H    0.000000  -0.040061  -0.000009  -0.022898   0.000419   0.000240
    25  Co  -0.001593  -0.015131  -0.012143   0.030432  -0.004774  -0.048464
               7          8          9         10         11         12
     1  O    0.138643   0.013656   0.076696   0.001232  -0.006360  -0.002371
     2  O   -0.000607  -0.009243   0.001222  -0.017008   0.023927   0.098164
     3  O   -0.111409  -0.002210   0.089458  -0.040701  -0.006445  -0.001310
     4  O   -0.003211  -0.060607  -0.020705   0.020601   0.002492  -0.194709
     5  O    0.084267   0.120574  -0.164547  -0.007964  -0.008108  -0.034594
     6  O   -0.053763   0.002398   0.002722  -0.191865  -0.048010   0.002313
     7  Si  13.274021   0.013823  -0.371914   0.001018  -0.141960   0.003128
     8  Si   0.013823  13.197421  -0.194955   0.022622  -0.014535  -0.207434
     9  Si  -0.371914  -0.194955  13.424665  -0.008717   0.013832  -0.002635
    10  Si   0.001018   0.022622  -0.008717  13.307199  -0.187451  -0.070226
    11  Si  -0.141960  -0.014535   0.013832  -0.187451  13.209812  -0.009038
    12  Al   0.003128  -0.207434  -0.002635  -0.070226  -0.009038  13.177533
    13  H   -0.007024  -0.001383   0.428995  -0.000074  -0.000076   0.000000
    14  H    0.005286   0.007980   0.342271   0.000210   0.000997  -0.000216
    15  H    0.421975   0.000787  -0.002562   0.000076   0.002620   0.000084
    16  H    0.395360  -0.003169   0.010629  -0.000485  -0.000115   0.000390
    17  H    0.005823   0.000357   0.000065  -0.007107   0.419298   0.002301
    18  H   -0.003085  -0.000733   0.000087   0.013960   0.418552  -0.005213
    19  H    0.000267  -0.000083   0.000039   0.416686  -0.001819   0.008993
    20  H   -0.000397   0.000820  -0.000020   0.411420   0.004788  -0.022328
    21  H   -0.002764   0.428018   0.019287   0.000473   0.000383  -0.005250
    22  H    0.000727   0.399181  -0.010008  -0.000808   0.000208   0.009416
    23  H    0.000220  -0.019044   0.000266   0.016774  -0.003747   0.459238
    24  H    0.000049  -0.021215  -0.000436  -0.004248  -0.000386   0.500752
    25  Co  -0.011632  -0.000885   0.015339   0.008666   0.020560  -0.230397
              13         14         15         16         17         18
     1  O   -0.040001  -0.017896  -0.032440  -0.049807  -0.001276   0.000116
     2  O   -0.000001   0.000001   0.000001  -0.000002   0.000119  -0.001244
     3  O    0.000074  -0.002771  -0.046465  -0.004970  -0.038525  -0.023366
     4  O   -0.000354  -0.000104   0.000009  -0.000039  -0.000021  -0.000025
     5  O   -0.033642   0.002048   0.000610  -0.005915   0.000066  -0.000107
     6  O    0.000002   0.000019  -0.001168   0.000234  -0.032765  -0.047229
     7  Si  -0.007024   0.005286   0.421975   0.395360   0.005823  -0.003085
     8  Si  -0.001383   0.007980   0.000787  -0.003169   0.000357  -0.000733
     9  Si   0.428995   0.342271  -0.002562   0.010629   0.000065   0.000087
    10  Si  -0.000074   0.000210   0.000076  -0.000485  -0.007107   0.013960
    11  Si  -0.000076   0.000997   0.002620  -0.000115   0.419298   0.418552
    12  Al   0.000000  -0.000216   0.000084   0.000390   0.002301  -0.005213
    13  H    0.769333  -0.027161  -0.000013   0.000187   0.000000   0.000000
    14  H   -0.027161   0.782931   0.000003  -0.000026   0.000000   0.000000
    15  H   -0.000013   0.000003   0.770246  -0.027806  -0.000098  -0.000025
    16  H    0.000187  -0.000026  -0.027806   0.776198  -0.000024  -0.000034
    17  H    0.000000   0.000000  -0.000098  -0.000024   0.772553  -0.026740
    18  H    0.000000   0.000000  -0.000025  -0.000034  -0.026740   0.756341
    19  H    0.000000   0.000000   0.000000   0.000000  -0.000018  -0.000034
    20  H    0.000000   0.000000   0.000000   0.000000  -0.000066   0.000106
    21  H   -0.000028  -0.000021   0.000000  -0.000002   0.000000   0.000000
    22  H   -0.000055  -0.000015   0.000000   0.000000   0.000000   0.000000
    23  H    0.000000   0.000000   0.000000   0.000000   0.000000  -0.000001
    24  H    0.000000   0.000000   0.000000   0.000000   0.000000   0.000000
    25  Co   0.000780  -0.003179  -0.000053   0.000474  -0.003935   0.000961
              19         20         21         22         23         24
     1  O    0.000000   0.000001  -0.001724  -0.000165  -0.000007   0.000000
     2  O   -0.029662  -0.025035   0.000140  -0.000059  -0.046275  -0.040061
     3  O   -0.000241  -0.000437   0.000218  -0.000019   0.000094  -0.000009
     4  O    0.000069  -0.001387  -0.032436  -0.025749  -0.035224  -0.022898
     5  O    0.000031   0.000013  -0.055539  -0.020743  -0.000274   0.000419
     6  O   -0.029165  -0.041063  -0.000004   0.000038  -0.011608   0.000240
     7  Si   0.000267  -0.000397  -0.002764   0.000727   0.000220   0.000049
     8  Si  -0.000083   0.000820   0.428018   0.399181  -0.019044  -0.021215
     9  Si   0.000039  -0.000020   0.019287  -0.010008   0.000266  -0.000436
    10  Si   0.416686   0.411420   0.000473  -0.000808   0.016774  -0.004248
    11  Si  -0.001819   0.004788   0.000383   0.000208  -0.003747  -0.000386
    12  Al   0.008993  -0.022328  -0.005250   0.009416   0.459238   0.500752
    13  H    0.000000   0.000000  -0.000028  -0.000055   0.000000   0.000000
    14  H    0.000000   0.000000  -0.000021  -0.000015   0.000000   0.000000
    15  H    0.000000   0.000000   0.000000   0.000000   0.000000   0.000000
    16  H    0.000000   0.000000  -0.000002   0.000000   0.000000   0.000000
    17  H   -0.000018  -0.000066   0.000000   0.000000   0.000000   0.000000
    18  H   -0.000034   0.000106   0.000000   0.000000  -0.000001   0.000000
    19  H    0.763978  -0.022992   0.000000   0.000000  -0.000029  -0.000006
    20  H   -0.022992   0.752301   0.000000   0.000000  -0.000652  -0.000010
    21  H    0.000000   0.000000   0.756486  -0.027066  -0.000018  -0.000009
    22  H    0.000000   0.000000  -0.027066   0.773940  -0.000016  -0.000070
    23  H   -0.000029  -0.000652  -0.000018  -0.000016   0.775652  -0.004076
    24  H   -0.000006  -0.000010  -0.000009  -0.000070  -0.004076   0.731668
    25  Co  -0.029209   0.020689   0.000050  -0.014253   0.009987  -0.035057
              25
     1  O   -0.001593
     2  O   -0.015131
     3  O   -0.012143
     4  O    0.030432
     5  O   -0.004774
     6  O   -0.048464
     7  Si  -0.011632
     8  Si  -0.000885
     9  Si   0.015339
    10  Si   0.008666
    11  Si   0.020560
    12  Al  -0.230397
    13  H    0.000780
    14  H   -0.003179
    15  H   -0.000053
    16  H    0.000474
    17  H   -0.003935
    18  H    0.000961
    19  H   -0.029209
    20  H    0.020689
    21  H    0.000050
    22  H   -0.014253
    23  H    0.009987
    24  H   -0.035057
    25  Co  27.036082
          Atomic-Atomic Spin Densities.
               1          2          3          4          5          6
     1  O   -0.000613   0.000011   0.000036  -0.000024  -0.001469  -0.000023
     2  O    0.000011   0.027333   0.000125   0.002053   0.000363  -0.004189
     3  O    0.000036   0.000125   0.000952   0.000312  -0.000252   0.001426
     4  O   -0.000024   0.002053   0.000312  -0.036805   0.004182   0.000592
     5  O   -0.001469   0.000363  -0.000252   0.004182  -0.008073  -0.000677
     6  O   -0.000023  -0.004189   0.001426   0.000592  -0.000677   0.027706
     7  Si  -0.000110   0.000168   0.000096  -0.000119  -0.000815  -0.002268
     8  Si   0.001096  -0.000548  -0.000044  -0.009199   0.011357   0.000291
     9  Si   0.001227  -0.000303  -0.000346  -0.000017   0.002665   0.001424
    10  Si  -0.000076   0.014496  -0.003782   0.005742  -0.000499  -0.030915
    11  Si  -0.000230  -0.001401   0.002376  -0.000265   0.000538   0.006543
    12  Al   0.000158  -0.017835   0.000412  -0.001367  -0.000153   0.004097
    13  H   -0.000129   0.000000   0.000007   0.000001  -0.000074   0.000000
    14  H    0.000076   0.000000   0.000004  -0.000004  -0.000056  -0.000001
    15  H   -0.000024   0.000000  -0.000017   0.000000  -0.000001   0.000006
    16  H    0.000004   0.000000  -0.000029   0.000001   0.000001   0.000004
    17  H    0.000008   0.000010   0.000098   0.000002   0.000000  -0.000326
    18  H    0.000004   0.000015  -0.000002   0.000001  -0.000001  -0.000234
    19  H    0.000000   0.000177   0.000022  -0.000024  -0.000001   0.001361
    20  H    0.000000  -0.000537  -0.000033   0.000034  -0.000001  -0.000398
    21  H    0.000051  -0.000024   0.000003   0.001008   0.001347   0.000037
    22  H   -0.000024   0.000008   0.000000   0.001273  -0.001558  -0.000001
    23  H    0.000000   0.000390   0.000001  -0.000030   0.000034  -0.000310
    24  H    0.000000  -0.002184   0.000000   0.000634  -0.000145   0.000168
    25  Co   0.000222  -0.002205  -0.001355   0.011167  -0.002954  -0.011899
               7          8          9         10         11         12
     1  O   -0.000110   0.001096   0.001227  -0.000076  -0.000230   0.000158
     2  O    0.000168  -0.000548  -0.000303   0.014496  -0.001401  -0.017835
     3  O    0.000096  -0.000044  -0.000346  -0.003782   0.002376   0.000412
     4  O   -0.000119  -0.009199  -0.000017   0.005742  -0.000265  -0.001367
     5  O   -0.000815   0.011357   0.002665  -0.000499   0.000538  -0.000153
     6  O   -0.002268   0.000291   0.001424  -0.030915   0.006543   0.004097
     7  Si  -0.002971   0.001617   0.001085  -0.000037   0.002856   0.000067
     8  Si   0.001617  -0.012058  -0.003194   0.002586  -0.001978  -0.002457
     9  Si   0.001085  -0.003194  -0.001392  -0.000248  -0.000606   0.000253
    10  Si  -0.000037   0.002586  -0.000248   0.010863   0.012780  -0.004607
    11  Si   0.002856  -0.001978  -0.000606   0.012780  -0.020304  -0.001760
    12  Al   0.000067  -0.002457   0.000253  -0.004607  -0.001760   0.025400
    13  H   -0.000055   0.000070   0.000246  -0.000002  -0.000001   0.000005
    14  H    0.000030   0.000027  -0.000135  -0.000001  -0.000006   0.000008
    15  H    0.000093  -0.000001  -0.000023   0.000001  -0.000025   0.000000
    16  H    0.000027  -0.000008   0.000017   0.000000  -0.000014  -0.000001
    17  H   -0.000117   0.000012   0.000031  -0.000385   0.000653  -0.000005
    18  H   -0.000082   0.000023   0.000023  -0.000351   0.000659   0.000034
    19  H   -0.000016   0.000010   0.000010  -0.001632  -0.000021  -0.000042
    20  H    0.000007   0.000028  -0.000004  -0.000004   0.000329   0.000675
    21  H    0.000035  -0.001982  -0.000106   0.000131   0.000035  -0.000101
    22  H   -0.000028   0.002102   0.000219  -0.000070  -0.000001  -0.000130
    23  H    0.000035  -0.000321  -0.000035   0.001590  -0.000103  -0.001927
    24  H   -0.000017   0.001353   0.000078  -0.001489   0.000029   0.003657
    25  Co   0.000899   0.003438  -0.001386   0.014729  -0.001352  -0.009127
              13         14         15         16         17         18
     1  O   -0.000129   0.000076  -0.000024   0.000004   0.000008   0.000004
     2  O    0.000000   0.000000   0.000000   0.000000   0.000010   0.000015
     3  O    0.000007   0.000004  -0.000017  -0.000029   0.000098  -0.000002
     4  O    0.000001  -0.000004   0.000000   0.000001   0.000002   0.000001
     5  O   -0.000074  -0.000056  -0.000001   0.000001   0.000000  -0.000001
     6  O    0.000000  -0.000001   0.000006   0.000004  -0.000326  -0.000234
     7  Si  -0.000055   0.000030   0.000093   0.000027  -0.000117  -0.000082
     8  Si   0.000070   0.000027  -0.000001  -0.000008   0.000012   0.000023
     9  Si   0.000246  -0.000135  -0.000023   0.000017   0.000031   0.000023
    10  Si  -0.000002  -0.000001   0.000001   0.000000  -0.000385  -0.000351
    11  Si  -0.000001  -0.000006  -0.000025  -0.000014   0.000653   0.000659
    12  Al   0.000005   0.000008   0.000000  -0.000001  -0.000005   0.000034
    13  H   -0.000112   0.000001   0.000000   0.000000   0.000000   0.000000
    14  H    0.000001   0.000035   0.000000   0.000000   0.000000   0.000000
    15  H    0.000000   0.000000  -0.000010   0.000001   0.000000   0.000000
    16  H    0.000000   0.000000   0.000001  -0.000005   0.000000   0.000000
    17  H    0.000000   0.000000   0.000000   0.000000   0.000188   0.000006
    18  H    0.000000   0.000000   0.000000   0.000000   0.000006   0.000012
    19  H    0.000000   0.000000   0.000000   0.000000   0.000003   0.000000
    20  H    0.000000   0.000000   0.000000   0.000000  -0.000003  -0.000012
    21  H    0.000008   0.000000   0.000000   0.000000   0.000000   0.000000
    22  H   -0.000001  -0.000001   0.000000   0.000000   0.000000   0.000000
    23  H    0.000000   0.000000   0.000000   0.000000   0.000000   0.000000
    24  H    0.000000   0.000000   0.000000   0.000000   0.000000   0.000000
    25  Co  -0.000013   0.000018   0.000002   0.000000  -0.000062  -0.000063
              19         20         21         22         23         24
     1  O    0.000000   0.000000   0.000051  -0.000024   0.000000   0.000000
     2  O    0.000177  -0.000537  -0.000024   0.000008   0.000390  -0.002184
     3  O    0.000022  -0.000033   0.000003   0.000000   0.000001   0.000000
     4  O   -0.000024   0.000034   0.001008   0.001273  -0.000030   0.000634
     5  O   -0.000001  -0.000001   0.001347  -0.001558   0.000034  -0.000145
     6  O    0.001361  -0.000398   0.000037  -0.000001  -0.000310   0.000168
     7  Si  -0.000016   0.000007   0.000035  -0.000028   0.000035  -0.000017
     8  Si   0.000010   0.000028  -0.001982   0.002102  -0.000321   0.001353
     9  Si   0.000010  -0.000004  -0.000106   0.000219  -0.000035   0.000078
    10  Si  -0.001632  -0.000004   0.000131  -0.000070   0.001590  -0.001489
    11  Si  -0.000021   0.000329   0.000035  -0.000001  -0.000103   0.000029
    12  Al  -0.000042   0.000675  -0.000101  -0.000130  -0.001927   0.003657
    13  H    0.000000   0.000000   0.000008  -0.000001   0.000000   0.000000
    14  H    0.000000   0.000000   0.000000  -0.000001   0.000000   0.000000
    15  H    0.000000   0.000000   0.000000   0.000000   0.000000   0.000000
    16  H    0.000000   0.000000   0.000000   0.000000   0.000000   0.000000
    17  H    0.000003  -0.000003   0.000000   0.000000   0.000000   0.000000
    18  H    0.000000  -0.000012   0.000000   0.000000   0.000000   0.000000
    19  H    0.000546  -0.000084   0.000000   0.000000  -0.000001   0.000000
    20  H   -0.000084  -0.000941   0.000000   0.000000   0.000044  -0.000002
    21  H    0.000000   0.000000  -0.003223   0.000352  -0.000014   0.000013
    22  H    0.000000   0.000000   0.000352  -0.001992   0.000001  -0.000035
    23  H   -0.000001   0.000044  -0.000014   0.000001   0.000202   0.000020
    24  H    0.000000  -0.000002   0.000013  -0.000035   0.000020  -0.004481
    25  Co  -0.000239  -0.000070   0.000598  -0.000849   0.000459  -0.001735
              25
     1  O    0.000222
     2  O   -0.002205
     3  O   -0.001355
     4  O    0.011167
     5  O   -0.002954
     6  O   -0.011899
     7  Si   0.000899
     8  Si   0.003438
     9  Si  -0.001386
    10  Si   0.014729
    11  Si  -0.001352
    12  Al  -0.009127
    13  H   -0.000013
    14  H    0.000018
    15  H    0.000002
    16  H    0.000000
    17  H   -0.000062
    18  H   -0.000063
    19  H   -0.000239
    20  H   -0.000070
    21  H    0.000598
    22  H   -0.000849
    23  H    0.000459
    24  H   -0.001735
    25  Co   0.012933
 Mulliken charges and spin densities:
               1          2
     1  O   -0.266532   0.000171
     2  O    0.025085   0.015923
     3  O   -0.092082   0.000011
     4  O    0.223808  -0.020849
     5  O   -0.156614   0.003759
     6  O   -0.099796  -0.007585
     7  Si   0.363159   0.000381
     8  Si   0.327859  -0.007780
     9  Si   0.350928  -0.000518
    10  Si   0.315719   0.018822
    11  Si   0.310579  -0.001269
    12  Al  -0.476590  -0.004749
    13  H   -0.089560  -0.000050
    14  H   -0.090358  -0.000004
    15  H   -0.085781   0.000001
    16  H   -0.091077  -0.000001
    17  H   -0.090008   0.000113
    18  H   -0.082285   0.000035
    19  H   -0.076804   0.000070
    20  H   -0.075750  -0.000971
    21  H   -0.080192  -0.001831
    22  H   -0.084484  -0.000735
    23  H   -0.141259   0.000037
    24  H   -0.104649  -0.004137
    25  Co   0.266683   0.011156
 Sum of Mulliken charges =   0.00000   0.00000
 Mulliken charges and spin densities with hydrogens summed into heavy atoms:
               1          2
     1  O   -0.266532   0.000171
     2  O    0.025085   0.015923
     3  O   -0.092082   0.000011
     4  O    0.223808  -0.020849
     5  O   -0.156614   0.003759
     6  O   -0.099796  -0.007585
     7  Si   0.186300   0.000381
     8  Si   0.163183  -0.010346
     9  Si   0.171010  -0.000573
    10  Si   0.163165   0.017922
    11  Si   0.138287  -0.001121
    12  Al  -0.722497  -0.008848
    25  Co   0.266683   0.011156
 Electronic spatial extent (au):  <R**2>=           5484.6401
 Charge=              0.0000 electrons
 Dipole moment (field-independent basis, Debye):
    X=              2.8598    Y=              0.3095    Z=             -3.7668  Tot=              4.7395
 Quadrupole moment (field-independent basis, Debye-Ang):
   XX=           -139.8264   YY=           -127.8711   ZZ=           -131.5972
   XY=             -5.3682   XZ=             10.7913   YZ=              4.2145
 Traceless Quadrupole moment (field-independent basis, Debye-Ang):
   XX=             -6.7282   YY=              5.2272   ZZ=              1.5010
   XY=             -5.3682   XZ=             10.7913   YZ=              4.2145
 Octapole moment (field-independent basis, Debye-Ang**2):
  XXX=             10.7583  YYY=             -4.9673  ZZZ=            -63.3567  XYY=              9.3211
  XXY=             15.3208  XXZ=            -27.4644  XZZ=             -8.5085  YZZ=            -13.2807
  YYZ=             -7.4246  XYZ=             -5.0230
 Hexadecapole moment (field-independent basis, Debye-Ang**3):
 XXXX=          -4489.2390 YYYY=          -2718.5645 ZZZZ=           -586.9230 XXXY=            -66.3926
 XXXZ=            107.9272 YYYX=            -27.0869 YYYZ=             41.2422 ZZZX=            103.0186
 ZZZY=             27.5840 XXYY=          -1213.7737 XXZZ=           -861.3380 YYZZ=           -549.4786
 XXYZ=             40.8328 YYXZ=             34.3134 ZZXY=             26.4603
 N-N= 2.099567103323D+03 E-N=-1.259817007817D+04  KE= 3.520077254763D+03
                          Isotropic Fermi Contact Couplings
        Atom                 a.u.       MegaHertz       Gauss      10(-4) cm-1
     1  O(17)              0.00000      -0.00074      -0.00026      -0.00025
     2  O(17)              0.00905      -2.74221      -0.97849      -0.91470
     3  O(17)             -0.00002       0.00591       0.00211       0.00197
     4  O(17)             -0.01052       3.18994       1.13825       1.06405
     5  O(17)             -0.00024       0.07386       0.02636       0.02464
     6  O(17)              0.00558      -1.69111      -0.60343      -0.56409
     7  Si(29)            -0.00001       0.00612       0.00218       0.00204
     8  Si(29)             0.00000      -0.00031      -0.00011      -0.00010
     9  Si(29)             0.00003      -0.01166      -0.00416      -0.00389
    10  Si(29)             0.00094      -0.41842      -0.14930      -0.13957
    11  Si(29)             0.00017      -0.07718      -0.02754      -0.02575
    12  Al(27)             0.00051       0.29814       0.10639       0.09945
    13  H(1)              -0.00002      -0.03473      -0.01239      -0.01158
    14  H(1)               0.00000      -0.00059      -0.00021      -0.00020
    15  H(1)               0.00000       0.00022       0.00008       0.00007
    16  H(1)               0.00000      -0.00023      -0.00008      -0.00008
    17  H(1)               0.00004       0.08485       0.03028       0.02830
    18  H(1)               0.00002       0.05560       0.01984       0.01855
    19  H(1)               0.00010       0.22741       0.08115       0.07586
    20  H(1)              -0.00045      -0.99707      -0.35578      -0.33259
    21  H(1)              -0.00063      -1.40534      -0.50146      -0.46877
    22  H(1)              -0.00029      -0.65404      -0.23338      -0.21816
    23  H(1)              -0.00012      -0.26800      -0.09563      -0.08940
    24  H(1)              -0.00159      -3.56359      -1.27158      -1.18869
    25  Co(59)            -0.05785     -30.59953     -10.91867     -10.20690
 --------------------------------------------------------
       Center         ----  Spin Dipole Couplings  ----
                      3XX-RR        3YY-RR        3ZZ-RR
 --------------------------------------------------------
     1   Atom        0.000021     -0.000006     -0.000016
     2   Atom        0.017351     -0.008616     -0.008735
     3   Atom        0.000089     -0.000192      0.000103
     4   Atom       -0.022523      0.066554     -0.044032
     5   Atom       -0.000112      0.000212     -0.000100
     6   Atom       -0.000670      0.002347     -0.001678
     7   Atom       -0.000033      0.000016      0.000017
     8   Atom        0.001334     -0.001768      0.000434
     9   Atom       -0.000034      0.000004      0.000031
    10   Atom        0.002462      0.000248     -0.002710
    11   Atom        0.000849     -0.000504     -0.000346
    12   Atom       -0.009774      0.006887      0.002887
    13   Atom       -0.000028      0.000010      0.000017
    14   Atom        0.000053     -0.000020     -0.000033
    15   Atom       -0.000008      0.000001      0.000006
    16   Atom       -0.000010      0.000000      0.000010
    17   Atom        0.000032     -0.000043      0.000011
    18   Atom        0.000046     -0.000050      0.000004
    19   Atom       -0.000121     -0.000091      0.000212
    20   Atom       -0.000112      0.000269     -0.000157
    21   Atom       -0.000041      0.000076     -0.000035
    22   Atom       -0.000090     -0.000098      0.000188
    23   Atom       -0.000123     -0.000174      0.000297
    24   Atom       -0.000681      0.000504      0.000177
    25   Atom        1.874948      0.049087     -1.924034
 --------------------------------------------------------
                        XY            XZ            YZ
 --------------------------------------------------------
     1   Atom        0.000007     -0.000044      0.000022
     2   Atom       -0.018369     -0.032418      0.019260
     3   Atom       -0.000117     -0.000039      0.000022
     4   Atom       -0.012055     -0.056537     -0.027619
     5   Atom        0.001115     -0.000385      0.000616
     6   Atom        0.008928      0.001755     -0.001498
     7   Atom       -0.000040     -0.000012      0.000009
     8   Atom        0.002186      0.001668     -0.001359
     9   Atom        0.000001      0.000063      0.000012
    10   Atom       -0.004307     -0.000042     -0.000286
    11   Atom        0.000664      0.000642      0.000189
    12   Atom       -0.001566      0.003519     -0.004821
    13   Atom        0.000009      0.000030      0.000009
    14   Atom        0.000017      0.000028     -0.000003
    15   Atom       -0.000014      0.000000      0.000006
    16   Atom       -0.000021     -0.000008      0.000000
    17   Atom        0.000010     -0.000008     -0.000026
    18   Atom        0.000029      0.000010     -0.000012
    19   Atom        0.000239     -0.000019     -0.000515
    20   Atom        0.000066      0.000061      0.000276
    21   Atom        0.000154     -0.000058      0.000095
    22   Atom        0.000059      0.000077     -0.000334
    23   Atom        0.000132      0.000380     -0.000353
    24   Atom       -0.000357      0.000088     -0.000275
    25   Atom       -1.413845     -2.488256      3.498768
 --------------------------------------------------------


 ---------------------------------------------------------------------------------
              Anisotropic Spin Dipole Couplings in Principal Axis System
 ---------------------------------------------------------------------------------

       Atom             a.u.   MegaHertz   Gauss  10(-4) cm-1        Axes

              Baa    -0.0001     0.004     0.001     0.001  0.4806 -0.4146  0.7727
     1 O(17)  Bbb     0.0000     0.000     0.000     0.000  0.3393  0.9005  0.2721
              Bcc     0.0001    -0.004    -0.001    -0.001  0.8086 -0.1314 -0.5734
 
              Baa    -0.0328     2.374     0.847     0.792  0.4123 -0.3549  0.8391
     2 O(17)  Bbb    -0.0179     1.296     0.462     0.432  0.5285  0.8434  0.0970
              Bcc     0.0507    -3.670    -1.310    -1.224  0.7421 -0.4035 -0.5353
 
              Baa    -0.0002     0.017     0.006     0.006  0.3375  0.9410 -0.0238
     3 O(17)  Bbb     0.0001    -0.005    -0.002    -0.002  0.5640 -0.1819  0.8055
              Bcc     0.0002    -0.012    -0.004    -0.004  0.7537 -0.2852 -0.5922
 
              Baa    -0.0960     6.947     2.479     2.317  0.6182  0.1760  0.7660
     4 O(17)  Bbb     0.0229    -1.658    -0.592    -0.553  0.7858 -0.1609 -0.5972
              Bcc     0.0731    -5.289    -1.887    -1.764  0.0182  0.9712 -0.2378
 
              Baa    -0.0014     0.104     0.037     0.035  0.6444 -0.6078  0.4640
     5 O(17)  Bbb     0.0002    -0.016    -0.006    -0.005 -0.4765  0.1555  0.8653
              Bcc     0.0012    -0.088    -0.031    -0.029  0.5981  0.7787  0.1894
 
              Baa    -0.0089     0.647     0.231     0.216  0.7278 -0.6154 -0.3025
     6 O(17)  Bbb    -0.0009     0.068     0.024     0.023  0.2317 -0.1945  0.9531
              Bcc     0.0099    -0.716    -0.255    -0.239  0.6454  0.7638 -0.0010
 
              Baa    -0.0001     0.006     0.002     0.002  0.8752  0.4760  0.0866
     7 Si(29) Bbb     0.0000    -0.001     0.000     0.000  0.1417 -0.4232  0.8949
              Bcc     0.0000    -0.005    -0.002    -0.002 -0.4626  0.7709  0.4378
 
              Baa    -0.0038     0.407     0.145     0.136 -0.4657  0.7743  0.4285
     8 Si(29) Bbb     0.0010    -0.101    -0.036    -0.034 -0.2149 -0.5687  0.7940
              Bcc     0.0029    -0.305    -0.109    -0.102  0.8585  0.2777  0.4312
 
              Baa    -0.0001     0.008     0.003     0.003  0.8486  0.0756 -0.5236
     9 Si(29) Bbb     0.0000     0.000     0.000     0.000 -0.1497  0.9836 -0.1006
              Bcc     0.0001    -0.008    -0.003    -0.003  0.5075  0.1637  0.8460
 
              Baa    -0.0032     0.341     0.122     0.114  0.5431  0.7117  0.4455
    10 Si(29) Bbb    -0.0026     0.274     0.098     0.092 -0.2850 -0.3428  0.8951
              Bcc     0.0058    -0.616    -0.220    -0.205  0.7898 -0.6131  0.0167
 
              Baa    -0.0008     0.084     0.030     0.028 -0.4544  0.8405  0.2950
    11 Si(29) Bbb    -0.0006     0.062     0.022     0.021 -0.2022 -0.4199  0.8848
              Bcc     0.0014    -0.146    -0.052    -0.049  0.8676  0.3424  0.3607
 
              Baa    -0.0107    -1.488    -0.531    -0.496  0.9695  0.0194 -0.2443
    12 Al(27) Bbb     0.0001     0.008     0.003     0.003  0.1853  0.5946  0.7824
              Bcc     0.0106     1.480     0.528     0.494 -0.1605  0.8038 -0.5729
 
              Baa     0.0000    -0.023    -0.008    -0.008  0.8976 -0.0828 -0.4329
    13 H(1)   Bbb     0.0000     0.003     0.001     0.001 -0.1117  0.9074 -0.4051
              Bcc     0.0000     0.020     0.007     0.007  0.4264  0.4120  0.8053
 
              Baa     0.0000    -0.023    -0.008    -0.008 -0.3176  0.3265  0.8903
    14 H(1)   Bbb     0.0000    -0.011    -0.004    -0.004 -0.0679  0.9286 -0.3648
              Bcc     0.0001     0.034     0.012     0.011  0.9458  0.1763  0.2728
 
              Baa     0.0000    -0.010    -0.003    -0.003  0.7839  0.6041 -0.1431
    15 H(1)   Bbb     0.0000     0.002     0.001     0.001  0.4190 -0.3447  0.8401
              Bcc     0.0000     0.008     0.003     0.003 -0.4582  0.7185  0.5233
 
              Baa     0.0000    -0.015    -0.005    -0.005  0.7833  0.6003  0.1617
    16 H(1)   Bbb     0.0000     0.004     0.001     0.001  0.1831 -0.4713  0.8628
              Bcc     0.0000     0.011     0.004     0.004 -0.5941  0.6462  0.4790
 
              Baa    -0.0001    -0.029    -0.010    -0.010 -0.0738  0.9279  0.3654
    17 H(1)   Bbb     0.0000     0.008     0.003     0.003  0.5297 -0.2740  0.8027
              Bcc     0.0000     0.021     0.008     0.007  0.8450  0.2527 -0.4713
 
              Baa    -0.0001    -0.033    -0.012    -0.011 -0.2718  0.9386  0.2126
    18 H(1)   Bbb     0.0000     0.003     0.001     0.001 -0.0756 -0.2411  0.9675
              Bcc     0.0001     0.029     0.011     0.010  0.9594  0.2469  0.1365
 
              Baa    -0.0006    -0.296    -0.106    -0.099 -0.3993  0.7658  0.5040
    19 H(1)   Bbb    -0.0001    -0.041    -0.015    -0.014  0.8914  0.1959  0.4086
              Bcc     0.0006     0.337     0.120     0.112 -0.2142 -0.6125  0.7609
 
              Baa    -0.0003    -0.158    -0.056    -0.053 -0.1473 -0.4200  0.8955
    20 H(1)   Bbb    -0.0001    -0.065    -0.023    -0.022  0.9761 -0.2080  0.0630
              Bcc     0.0004     0.223     0.080     0.075  0.1599  0.8834  0.4406
 
              Baa    -0.0002    -0.111    -0.040    -0.037  0.6689 -0.5355  0.5156
    21 H(1)   Bbb     0.0000     0.009     0.003     0.003 -0.5525  0.1058  0.8267
              Bcc     0.0002     0.103     0.037     0.034  0.4973  0.8379  0.2251
 
              Baa    -0.0004    -0.187    -0.067    -0.062 -0.3320  0.7794  0.5314
    22 H(1)   Bbb    -0.0001    -0.032    -0.011    -0.011  0.9410  0.3129  0.1290
              Bcc     0.0004     0.219     0.078     0.073  0.0657 -0.5429  0.8372
 
              Baa    -0.0006    -0.312    -0.111    -0.104 -0.5947  0.6248  0.5059
    23 H(1)   Bbb     0.0000    -0.010    -0.003    -0.003  0.7019  0.7103 -0.0520
              Bcc     0.0006     0.322     0.115     0.107  0.3919 -0.3242  0.8610
 
              Baa    -0.0008    -0.416    -0.149    -0.139  0.9642  0.2650 -0.0124
    24 H(1)   Bbb     0.0000     0.017     0.006     0.006 -0.1087  0.4372  0.8928
              Bcc     0.0007     0.399     0.143     0.133 -0.2420  0.8594 -0.4503
 
              Baa    -4.7951  -605.515  -216.063  -201.978  0.1926 -0.5370  0.8213
    25 Co(59) Bbb    -0.2096   -26.471    -9.446    -8.830  0.7284  0.6391  0.2471
              Bcc     5.0047   631.986   225.508   210.808  0.6576 -0.5506 -0.5142
 

 ---------------------------------------------------------------------------------

 Calling FoFJK, ICntrl=      2127 FMM=F ISym2X=0 I1Cent= 0 IOpClX= 1 NMat=1 NMatS=1 NMatT=0.
 ***** Axes restored to original set *****
 -------------------------------------------------------------------
 Center     Atomic                   Forces (Hartrees/Bohr)
[...]
 Maximum Displacement     0.003360     0.001800     NO 
 RMS     Displacement     0.000319     0.001200     YES
 Predicted change in Energy=-3.616257D-07
 GradGradGradGradGradGradGradGradGradGradGradGradGradGradGradGradGradGrad

 1\1\GINC-N2284\Freq\UB3LYP\6-31+G(d)\Al1Co1H12O6Si5\NGALLUP\22-May-201
 7\0\\#N Geom=AllCheck Guess=TCheck SCRF=Check GenChk UB3LYP/6-31+G(d) 
 Freq\\Automatically Generated by ZeoliteClusterizer\\0,1\O,3.513255124
 3,0.3749049936,-0.4488891027\O,-3.1063561288,-0.3895586618,-0.55508161
 78\O,1.3022676416,1.7622156334,0.1524778112\O,-0.7473882005,-1.6895551
 183,0.1993422129\O,1.7223477244,-1.5941008499,-0.2450867828\O,-1.19721
 45987,1.5289969987,-0.2041009106\Si,2.9624010556,1.6834312073,0.362996
 3229\Si,0.5664804945,-2.5977737956,0.4802487699\Si,3.315345488,-1.2580
 005208,-0.5336238616\Si,-2.8812605324,1.1774057616,-0.3589349141\Si,-0
 .1246854958,2.616509404,0.4103390925\Al,-2.5480540956,-1.6370695233,0.
 5659433192\H,4.1316401664,-1.8898709208,0.4994683098\H,3.6494243671,-1
 .6534361733,-1.8897420298\H,3.5661836542,2.8389950863,-0.2699489436\H,
 3.2491131762,1.5694440115,1.7994089442\H,-0.0511799701,3.8635658426,-0
 .3609917948\H,-0.3499101705,2.8231700239,1.8438218426\H,-3.2371262171,
 1.7850881592,-1.6133977826\H,-3.4806294304,1.795755093,0.8461878045\H,
 0.9525695806,-2.7315695733,1.8937558941\H,0.4862864552,-3.8709343731,-
 0.2212801268\H,-2.5594063675,-0.9545734155,1.9892188099\H,-3.135197244
 ,-3.0060907606,0.1295050726\Co,0.2349002592,-0.0180157714,-0.253717204
 5\\Version=ES64L-G09RevD.01\State=1-A\HF=-3531.7050038\S2=0.922473\S2-
 1=0.\S2A=0.005063\RMSD=4.474e-09\RMSF=2.957e-05\ZeroPoint=0.045086\The
 rmal=0.0595112\Dipole=2.8622666,1.5278004,0.2197268\DipoleDeriv=-0.951
 595,0.1266024,0.1169766,0.135837,-2.05266,-0.3647996,0.1276484,-0.4188
 126,-0.7541838,-0.9204119,0.0730762,-0.1125065,0.044392,-1.6859582,0.2
 405189,-0.1261055,0.3053698,-0.8738099,-2.1887979,0.2357117,-0.0661831
 ,0.2462149,-1.0994261,-0.1354657,-0.0498617,-0.093594,-0.5075753,-1.84
 63214,0.1680424,0.1373837,0.1485539,-1.2096584,0.1448318,0.1319479,0.1
 363636,-0.5838106,-2.0341995,-0.3051759,0.3567235,-0.2831904,-1.175773
 9,0.2079055,0.4509394,0.2250519,-0.6210311,-2.0808604,-0.305271,-0.205
 91,-0.3445627,-1.2001214,-0.1635054,-0.2879204,-0.1628999,-0.5520597,2
 .4074616,-0.1732599,0.0149828,-0.0406065,1.8957947,0.222153,0.0775952,
 0.3793237,1.2948933,2.0881208,-0.0534896,-0.1036949,0.0301396,1.977887
 9,-0.2733357,-0.1882656,-0.3149695,1.2210055,2.3177057,0.1660843,-0.24
 14481,0.0229865,2.1099408,0.1602157,-0.2191037,0.0424305,1.232123,2.33
 27498,0.179009,0.167505,0.1244752,1.9120389,-0.1159591,0.1373043,-0.03
 30041,1.2185399,2.2015716,-0.0248766,0.0366749,-0.0667705,2.0253216,0.
 2192688,0.0832824,0.2459116,1.161651,1.8673623,-0.0566576,-0.067223,0.
 0305216,1.5373599,-0.0853557,-0.1348931,-0.2756433,1.1860774,0.,0.,0.,
 0.,0.,0.,0.,0.,0.,0.,0.,0.,0.,0.,0.,0.,0.,0.,0.,0.,0.,0.,0.,0.,0.,0.,0
 .,0.,0.,0.,0.,0.,0.,0.,0.,0.,0.,0.,0.,0.,0.,0.,0.,0.,0.,0.,0.,0.,0.,0.
 ,0.,0.,0.,0.,0.,0.,0.,0.,0.,0.,0.,0.,0.,0.,0.,0.,0.,0.,0.,0.,0.,0.,0.,
 0.,0.,0.,0.,0.,0.,0.,0.,0.,0.,0.,0.,0.,0.,0.,0.,0.,0.,0.,0.,0.,0.,0.,0
 .,0.,0.,0.,0.,0.,0.,0.,0.,0.,0.,0.,0.6702148,-0.0236244,-0.0224793,-0.
 0562549,0.8828624,-0.0261029,-0.0128615,-0.0391742,0.0784418\Polar=177
 .7706397,-0.6668355,180.0495993,-0.6753044,0.9094994,147.5250227\PG=C0
 1 [X(Al1Co1H12O6Si5)]\NImag=0\\0.08812002,-0.05063995,0.53945115,-0.04
 643030,0.14058153,0.11659958,-0.00070323,-0.00027569,0.00000753,0.0664
 5886,-0.00042013,0.00291501,0.00059202,0.00519453,0.51173922,-0.000013
 37,-0.00043488,0.00014842,0.04559321,-0.04915988,0.12393191,-0.0161448
 8,0.03069595,0.00860133,-0.00156335,-0.00602296,0.00061712,0.48445861,
 0.01645707,-0.00311403,-0.00083872,-0.00062454,0.00266479,-0.00032897,
 -0.10552221,0.12482825,0.00768174,-0.00402534,0.00508355,-0.00045069,-
 0.00030844,0.00047472,0.00253451,0.01510935,0.05344835,-0.00153704,-0.
 00701276,-0.00107915,-0.01106138,0.01735237,-0.00527376,0.00598279,-0.
 00484893,0.00080176,0.42916971,-0.00102638,0.00367907,0.00062541,0.010
 45872,-0.00093276,0.00018680,-0.00467860,-0.00147994,0.00245939,-0.128
 88287,0.18477246,0.00059020,0.00085100,0.00063246,-0.00614766,0.003131
 73,0.00415929,-0.00155265,-0.00209423,0.00066152,0.00655080,-0.0340726
 6,0.05304138,-0.00561248,-0.03105411,-0.00379385,-0.00243813,0.0042586
 7,-0.00133632,0.01245138,0.00211659,-0.00014722,-0.04571569,-0.0008122
 1,0.01087333,0.43684508,-0.01982704,-0.01362561,0.00015263,0.00009218,
 0.00301316,-0.00099395,0.00171192,-0.00617541,-0.00126480,-0.00509420,
 0.01585567,-0.00091166,0.14567988,0.14189324,0.00230072,0.00752495,0.0
 0819269,0.00050078,-0.00134876,0.00071155,-0.00218934,0.00076367,0.000
 69818,0.00778434,-0.00295671,0.00531659,-0.11933117,-0.06802996,0.0944
 2077,-0.00317122,0.00597276,0.00175955,-0.00591583,-0.02316840,0.00190
 328,-0.04412171,-0.00338875,-0.00835900,0.00972368,0.00347014,-0.00099
 336,0.00409797,0.00412349,-0.00064745,0.38114149,-0.00024494,0.0043965
 4,0.00129533,-0.01898657,-0.00825051,-0.00076750,-0.00930117,0.0146960
 6,0.00026516,0.00199977,-0.00648461,0.00133246,0.00283199,0.00293156,-
 0.00090432,0.15012852,0.18772992,-0.00042567,0.00129157,0.00067285,-0.
 00383624,-0.00615763,0.00695812,-0.00464582,0.00264915,0.00452119,0.00
 109204,-0.00055379,0.00142843,0.00028732,0.00071898,0.00203479,0.09146
 233,0.07271671,0.08748732,-0.05430436,0.05263355,0.03643870,0.00158743
 ,0.00348655,-0.00033233,-0.21617708,0.01284180,-0.02490734,-0.00214130
 ,0.00565786,0.00001256,-0.01805148,-0.00152155,0.00331549,0.01503326,0
 .00438356,0.00216030,0.38397143,0.06424536,-0.20255996,-0.10115723,0.0
 0052267,-0.00233029,0.00038245,-0.00279193,-0.03737280,0.00142073,0.00
 558895,-0.00168981,-0.00091379,0.01540963,0.00813105,-0.00339269,-0.00
 487395,-0.00445669,-0.00128388,-0.01101657,0.44417312,0.04029241,-0.10
 247490,-0.09901292,0.00029403,-0.00028678,-0.00032620,-0.02951099,0.00
 212824,-0.03886291,0.00207152,-0.00006175,-0.00100131,0.00782202,0.005
 42748,-0.00343407,-0.00034011,-0.00126059,-0.00048389,-0.01574969,0.02
 290106,0.39492420,0.00212736,0.01483873,0.00177009,0.00338727,-0.00773
 174,0.00268730,-0.00805330,0.00230820,0.00113651,-0.22327880,0.1172075
 7,-0.03747163,-0.10484095,-0.05541551,0.04586980,-0.00472206,-0.005502
 47,-0.00079287,0.00797421,-0.00963664,-0.00325632,0.40410056,0.0026243
 0,0.00223505,0.00027769,-0.00257296,-0.00088027,0.00016412,0.00131816,
 0.00406458,0.00054739,0.13814074,-0.12633738,0.02715128,-0.07648517,-0
 .09268164,0.04720451,-0.00371583,0.00279883,-0.00028866,-0.00362787,-0
 .00303658,-0.00155575,-0.06164633,0.43629627,-0.00300812,-0.00684498,-
 0.00113733,0.00002645,0.00096175,-0.00123419,0.00124131,-0.00185197,-0
 .00090732,-0.04100923,0.02717942,-0.04492771,0.05112877,0.04059915,-0.
 06477199,0.00130055,-0.00032282,-0.00028007,-0.00112630,0.00396216,0.0
 0342164,0.03768387,-0.01223291,0.36466410,-0.03542116,-0.01041452,0.00
 132730,0.00203647,-0.00225316,0.00062249,-0.01307882,-0.00269212,-0.00
 014837,0.01198701,-0.00118110,-0.00199956,-0.23824465,-0.04653158,0.03
 912246,0.00050631,-0.00405710,-0.00036621,0.01738009,-0.00531325,-0.00
 433798,-0.03228071,-0.01413239,0.01359879,0.40930351,-0.02067095,-0.26
 380019,-0.01291510,0.00017002,-0.00297667,0.00053107,-0.02210992,0.004
 93223,0.00248903,0.00775621,-0.00422462,-0.00038837,-0.03111950,-0.045
 04034,0.00667033,-0.00601384,-0.00314369,-0.00093051,0.02237066,-0.045
 58243,-0.01747860,-0.02128000,-0.00257454,0.00628047,0.00331865,0.4326
 7953,-0.00237046,-0.01586293,-0.03902287,-0.00038838,0.00041949,-0.000
 49702,-0.00136646,0.00058817,-0.00046699,-0.00298892,0.00094822,-0.000
 06667,0.03849390,0.01122260,-0.04470170,-0.00038808,-0.00000268,-0.000
 14748,0.00090064,-0.01057806,-0.00029319,0.01037559,0.00240229,-0.0019
 0347,-0.01322585,0.00616752,0.40210954,0.00250715,-0.00335807,-0.00094
 617,-0.04035211,-0.03145505,-0.00749191,0.01484462,-0.00119246,0.00172
 512,-0.00909656,-0.00438135,0.00113535,0.00008464,-0.00402461,0.000500
 61,-0.15135830,-0.02224626,-0.00984729,-0.00952516,0.00178721,-0.00025
 922,0.00227324,0.00476857,-0.00147478,-0.00203255,0.00359489,0.0004819
 1,0.29452265,0.00049340,-0.00352537,-0.00076757,-0.03794865,-0.3671402
 9,-0.03584286,0.00857757,-0.00315475,0.00028928,-0.01371862,0.00183965
 ,-0.00141007,-0.00485141,-0.00287958,0.00128118,-0.01170606,-0.0385153
 4,-0.00134126,-0.00409723,0.00299167,0.00031106,0.00797813,0.00011485,
 -0.00053166,0.00270916,0.00348284,-0.00040762,0.01077305,0.54830363,0.
 00032785,-0.00053706,-0.00042823,-0.00388471,-0.03067441,-0.04732263,0
 .00231370,-0.00069574,-0.00014319,0.00071309,0.00033645,-0.00220330,0.
 00018737,0.00008238,-0.00017105,-0.00993735,-0.00319004,-0.03590871,-0
 .00136265,0.00022869,0.00076166,-0.00076416,0.00031169,0.00057688,-0.0
 0023449,0.00044617,0.00049050,0.01092181,0.01019109,0.39268635,0.00599
 969,-0.01397523,-0.00437111,0.00176833,0.01075447,-0.00055279,-0.15868
 544,0.06794478,0.02314776,-0.00736578,0.00249392,-0.00070459,-0.005532
 75,-0.00546235,0.00165956,-0.13330951,-0.09077019,-0.05498678,-0.04124
 018,0.01630870,0.00209608,0.00808253,0.00152129,-0.00144588,0.00361918
 ,0.01148485,0.00099550,-0.02966240,-0.02175666,-0.00874981,0.37034660,
 -0.00261050,-0.00037922,-0.00018415,0.00250700,0.00144461,-0.00001003,
 0.09228309,-0.08230798,-0.01434489,0.00109815,0.00475425,-0.00072794,-
 0.00353099,0.00310807,0.00023154,-0.11271948,-0.13759026,-0.06173516,0
 .01023050,0.00195615,0.00096966,0.00148997,-0.00462139,0.00119699,0.00
 482562,-0.00045577,-0.00064213,-0.01803364,-0.00479349,-0.00275732,0.0
 2614027,0.41959585,-0.00003498,-0.00066477,-0.00052162,0.00228493,0.00
 371785,-0.00101747,0.02665666,-0.01500552,-0.03814097,-0.00087657,0.00
 117699,-0.00127137,-0.00054083,0.00059421,-0.00023194,-0.05963109,-0.0
 5588983,-0.06816498,0.00042816,0.00111369,0.00178395,0.00048341,-0.000
 90953,0.00107592,0.00091537,-0.00023292,0.00049027,-0.01254636,-0.0051
 5547,0.00010683,0.00433936,0.02572033,0.38130786,0.00126476,0.00336298
 ,0.00043347,-0.03268687,0.02865525,-0.02978861,-0.00172430,0.00392982,
 -0.00004202,-0.10263395,0.00437782,0.02042259,0.01235189,0.00279813,-0
 .00284695,-0.01236345,-0.00021725,-0.00154037,-0.00048333,-0.00313044,
 -0.00100615,-0.02657782,0.01118803,-0.00043208,-0.00706595,-0.00312187
 ,0.00154661,0.01514297,0.01337103,0.00032109,0.00502877,-0.00336335,0.
 00009960,0.19601099,0.00050980,-0.00219324,-0.00045993,0.03245614,-0.0
 9497958,0.06769620,0.00422019,-0.00141029,0.00030347,-0.00323141,-0.02
 299809,-0.00066863,-0.00299736,-0.00294981,0.00124433,0.01054277,0.004
 88062,0.00219101,-0.00289755,0.00157764,0.00024157,0.01167717,0.003399
 44,-0.00137739,0.00113720,0.00240791,-0.00014105,-0.00359952,-0.035895
 95,0.00799592,-0.00686471,-0.00190533,-0.00199650,0.00787059,0.3001564
 2,-0.00036229,0.00000437,-0.00024870,-0.03138584,0.06928268,-0.0874363
 1,-0.00166734,-0.00025667,-0.00059474,0.02245080,-0.00126015,-0.023477
 02,-0.00087111,0.00080331,-0.00018409,-0.00607957,-0.00427672,-0.00360
 310,0.00107896,0.00003903,0.00069618,-0.00044637,-0.00170544,0.0039049
 8,0.00082279,-0.00003305,0.00047766,0.00476628,0.01602027,0.00911155,0
 .00192657,0.00126161,0.00276746,0.02324821,0.00338521,0.23690489,0.,0.
 ,0.,0.,0.,0.,0.,0.,0.,0.,0.,0.,0.,0.,0.,0.,0.,0.,0.,0.,0.,0.,0.,0.,0.,
 0.,0.,0.,0.,0.,0.,0.,0.,0.,0.,0.,0.,0.,0.,0.,0.,0.,0.,0.,0.,0.,0.,0.,0
 .,0.,0.,0.,0.,0.,0.,0.,0.,0.,0.,0.,0.,0.,0.,0.,0.,0.,0.,0.,0.,0.,0.,0.
 ,0.,0.,0.,0.,0.,0.,0.,0.,0.,0.,0.,0.,0.,0.,0.,0.,0.,0.,0.,0.,0.,0.,0.,
 0.,0.,0.,0.,0.,0.,0.,0.,0.,0.,0.,0.,0.,0.,0.,0.,0.,0.,0.,0.,0.,0.,0.,0
 .,0.,0.,0.,0.,0.,0.,0.,0.,0.,0.,0.,0.,0.,0.,0.,0.,0.,0.,0.,0.,0.,0.,0.
 ,0.,0.,0.,0.,0.,0.,0.,0.,0.,0.,0.,0.,0.,0.,0.,0.,0.,0.,0.,0.,0.,0.,0.,
 0.,0.,0.,0.,0.,0.,0.,0.,0.,0.,0.,0.,0.,0.,0.,0.,0.,0.,0.,0.,0.,0.,0.,0
 .,0.,0.,0.,0.,0.,0.,0.,0.,0.,0.,0.,0.,0.,0.,0.,0.,0.,0.,0.,0.,0.,0.,0.
 ,0.,0.,0.,0.,0.,0.,0.,0.,0.,0.,0.,0.,0.,0.,0.,0.,0.,0.,0.,0.,0.,0.,0.,
 0.,0.,0.,0.,0.,0.,0.,0.,0.,0.,0.,0.,0.,0.,0.,0.,0.,0.,0.,0.,0.,0.,0.,0
 .,0.,0.,0.,0.,0.,0.,0.,0.,0.,0.,0.,0.,0.,0.,0.,0.,0.,0.,0.,0.,0.,0.,0.
 ,0.,0.,0.,0.,0.,0.,0.,0.,0.,0.,0.,0.,0.,0.,0.,0.,0.,0.,0.,0.,0.,0.,0.,
 0.,0.,0.,0.,0.,0.,0.,0.,0.,0.,0.,0.,0.,0.,0.,0.,0.,0.,0.,0.,0.,0.,0.,0
 .,0.,0.,0.,0.,0.,0.,0.,0.,0.,0.,0.,0.,0.,0.,0.,0.,0.,0.,0.,0.,0.,0.,0.
 ,0.,0.,0.,0.,0.,0.,0.,0.,0.,0.,0.,0.,0.,0.,0.,0.,0.,0.,0.,0.,0.,0.,0.,
 0.,0.,0.,0.,0.,0.,0.,0.,0.,0.,0.,0.,0.,0.,0.,0.,0.,0.,0.,0.,0.,0.,0.,0
 .,0.,0.,0.,0.,0.,0.,0.,0.,0.,0.,0.,0.,0.,0.,0.,0.,0.,0.,0.,0.,0.,0.,0.
 ,0.,0.,0.,0.,0.,0.,0.,0.,0.,0.,0.,0.,0.,0.,0.,0.,0.,0.,0.,0.,0.,0.,0.,
 0.,0.,0.,0.,0.,0.,0.,0.,0.,0.,0.,0.,0.,0.,0.,0.,0.,0.,0.,0.,0.,0.,0.,0
 .,0.,0.,0.,0.,0.,0.,0.,0.,0.,0.,0.,0.,0.,0.,0.,0.,0.,0.,0.,0.,0.,0.,0.
 ,0.,0.,0.,0.,0.,0.,0.,0.,0.,0.,0.,0.,0.,0.,0.,0.,0.,0.,0.,0.,0.,0.,0.,
 0.,0.,0.,0.,0.,0.,0.,0.,0.,0.,0.,0.,0.,0.,0.,0.,0.,0.,0.,0.,0.,0.,0.,0
 .,0.,0.,0.,0.,0.,0.,0.,0.,0.,0.,0.,0.,0.,0.,0.,0.,0.,0.,0.,0.,0.,0.,0.
 ,0.,0.,0.,0.,0.,0.,0.,0.,0.,0.,0.,0.,0.,0.,0.,0.,0.,0.,0.,0.,0.,0.,0.,
 0.,0.,0.,0.,0.,0.,0.,0.,0.,0.,0.,0.,0.,0.,0.,0.,0.,0.,0.,0.,0.,0.,0.,0
 .,0.,0.,0.,0.,0.,0.,0.,0.,0.,0.,0.,0.,0.,0.,0.,0.,0.,0.,0.,0.,0.,0.,0.
 ,0.,0.,0.,0.,0.,0.,0.,0.,0.,0.,0.,0.,0.,0.,0.,0.,0.,0.,0.,0.,0.,0.,0.,
 0.,0.,0.,0.,0.,0.,0.,0.,0.,0.,0.,0.,0.,0.,0.,0.,0.,0.,0.,0.,0.,0.,0.,0
 .,0.,0.,0.,0.,0.,0.,0.,0.,0.,0.,0.,0.,0.,0.,0.,0.,0.,0.,0.,0.,0.,0.,0.
 ,0.,0.,0.,0.,0.,0.,0.,0.,0.,0.,0.,0.,0.,0.,0.,0.,0.,0.,0.,0.,0.,0.,0.,
 0.,0.,0.,0.,0.,0.,0.,0.,0.,0.,0.,0.,0.,0.,0.,0.,0.,0.,0.,0.,0.,0.,0.,0
 .,0.,0.,0.,0.,0.,0.,0.,0.,0.,0.,0.,0.,0.,0.,0.,0.,0.,0.,0.,0.,0.,0.,0.
 ,0.,0.,0.,0.,0.,0.,0.,0.,0.,0.,0.,0.,0.,0.,0.,0.,0.,0.,0.,0.,0.,0.,0.,
 0.,0.,0.,0.,0.,0.,0.,0.,0.,0.,0.,0.,0.,0.,0.,0.,0.,0.,0.,0.,0.,0.,0.,0
 .,0.,0.,0.,0.,0.,0.,0.,0.,0.,0.,0.,0.,0.,0.,0.,0.,0.,0.,0.,0.,0.,0.,0.
 ,0.,0.,0.,0.,0.,0.,0.,0.,0.,0.,0.,0.,0.,0.,0.,0.,0.,0.,0.,0.,0.,0.,0.,
 0.,0.,0.,0.,0.,0.,0.,0.,0.,0.,0.,0.,0.,0.,0.,0.,0.,0.,0.,0.,0.,0.,0.,0
 .,0.,0.,0.,0.,0.,0.,0.,0.,0.,0.,0.,0.,0.,0.,0.,0.,0.,0.,0.,0.,0.,0.,0.
 ,0.,0.,0.,0.,0.,0.,0.,0.,0.,0.,0.,0.,0.,0.,0.,0.,0.,0.,0.,0.,0.,0.,0.,
 0.,0.,0.,0.,0.,0.,0.,0.,0.,0.,0.,0.,0.,0.,0.,0.,0.,0.,0.,0.,0.,0.,0.,0
 .,0.,0.,0.,0.,0.,0.,0.,0.,0.,0.,0.,0.,0.,0.,0.,0.,0.,0.,0.,0.,0.,0.,0.
 ,0.,0.,0.,0.,0.,0.,0.,0.,0.,0.,0.,0.,0.,0.,0.,0.,0.,0.,0.,0.,0.,0.,0.,
 0.,0.,0.,0.,0.,0.,0.,0.,0.,0.,0.,0.,0.,0.,0.,0.,0.,0.,0.,0.,0.,0.,0.,0
 .,0.,0.,0.,0.,0.,0.,0.,0.,0.,0.,0.,0.,0.,0.,0.,0.,0.,0.,0.,0.,0.,0.,0.
 ,0.,0.,0.,0.,0.,0.,0.,0.,0.,0.,0.,0.,0.,0.,0.,0.,0.,0.,0.,0.,0.,0.,0.,
 0.,0.,0.,0.,0.,0.,0.,0.,0.,0.,0.,0.,0.,0.,0.,0.,0.,0.,0.,0.,0.,0.,0.,0
 .,0.,0.,0.,0.,0.,0.,0.,0.,0.,0.,0.,0.,0.,0.,0.,0.,0.,0.,0.,0.,0.,0.,0.
 ,0.,0.,0.,0.,0.,0.,0.,0.,0.,0.,0.,0.,0.,0.,0.,0.,0.,0.,0.,0.,0.,0.,0.,
 0.,0.,0.,0.,0.,0.,0.,0.,0.,0.,0.,0.,0.,0.,0.,0.,0.,0.,0.,0.,0.,0.,0.,0
 .,0.,0.,0.,0.,0.,0.,0.,0.,0.,0.,0.,0.,0.,0.,0.,0.,0.,0.,0.,0.,0.,0.,0.
 ,0.,0.,0.,0.,0.,0.,0.,0.,0.,0.,0.,0.,0.,0.,0.,0.,0.,0.,0.,0.,0.,0.,0.,
 0.,0.,0.,0.,0.,0.,0.,0.,0.,0.,0.,0.,0.,0.,0.,0.,0.,0.,0.,0.,0.,0.,0.,0
 .,0.,0.,0.,0.,0.,0.,0.,0.,0.,0.,0.,0.,0.,0.,0.,0.,0.,0.,0.,0.,0.,0.,0.
 ,0.,0.,0.,0.,0.,0.,0.,0.,0.,0.,0.,0.,0.,0.,0.,0.,0.,0.,0.,0.,0.,0.,0.,
 0.,0.,0.,0.,0.,0.,0.,0.,0.,0.,0.,0.,0.,0.,0.,0.,0.,0.,0.,0.,0.,0.,0.,0
 .,0.,0.,0.,0.,0.,0.,0.,0.,0.,0.,0.,0.,0.,0.,0.,0.,0.,0.,0.,0.,0.,0.,0.
 ,0.,0.,0.,0.,0.,0.,0.,0.,0.,0.,0.,0.,0.,0.,0.,0.,0.,0.,0.,0.,0.,0.,0.,
 0.,0.,0.,0.,0.,0.,0.,0.,0.,0.,0.,0.,0.,0.,0.,0.,0.,0.,0.,0.,0.,0.,0.,0
 .,0.,0.,0.,0.,0.,0.,0.,0.,0.,0.,0.,0.,0.,0.,0.,0.,0.,0.,0.,0.,0.,0.,0.
 ,0.,0.,0.,0.,0.,0.,0.,0.,0.,0.,0.,0.,0.,0.,0.,0.,0.,0.,0.,0.,0.,0.,0.,
 0.,0.,0.,0.,0.,0.,0.,0.,0.,0.,0.,0.,0.,0.,0.,0.,0.,0.,0.,0.,0.,0.,0.,0
 .,0.,0.,0.,0.,0.,0.,0.,0.,0.,0.,0.,0.,0.,0.,0.,0.,0.,0.,0.,0.,0.,0.,0.
 ,0.,0.,0.,0.,0.,0.,0.,0.,0.,0.,0.,0.,0.,0.,0.,0.,0.,0.,0.,0.,0.,0.,0.,
 0.,0.,0.,0.,0.,0.,0.,0.,0.,0.,0.,0.,0.,0.,0.,0.,0.,0.,0.,0.,0.,0.,0.,0
 .,0.,0.,0.,0.,0.,0.,0.,0.,0.,0.,0.,0.,0.,0.,0.,0.,0.,0.,0.,0.,0.,0.,0.
 ,0.,0.,0.,0.,0.,0.,0.,0.,0.,0.,0.,0.,0.,0.,0.,0.,0.,0.,0.,0.,0.,0.,0.,
 0.,0.,0.,0.,0.,0.,0.,0.,0.,0.,0.,0.,0.,0.,0.,0.,0.,0.,0.,0.,0.,0.,0.,0
 .,0.,0.,0.,0.,0.,0.,0.,0.,0.,0.,0.,0.,0.,0.,0.,0.,0.,0.,0.,0.,0.,0.,0.
 ,0.,0.,0.,0.,0.,0.,0.,0.,0.,0.,0.,0.,0.,0.,0.,0.,0.,0.,0.,0.,0.,0.,0.,
 0.,0.,0.,0.,0.,0.,0.,0.,0.,0.,0.,0.,0.,0.,0.,0.,0.,0.,0.,0.,0.,0.,0.,0
 .,0.,0.,0.,0.,0.,0.,0.,0.,0.,0.,0.,0.,0.,0.,0.,0.,0.,0.,0.,0.,0.,0.,0.
 ,0.,0.,0.,0.,0.,0.,0.,0.,0.,0.,0.,0.,0.,0.,0.,0.,0.,0.,0.,0.,0.,0.,0.,
 0.,0.,0.,0.,0.,0.,0.,0.,0.,0.,0.,0.,0.,0.,0.,0.,0.,0.,0.,0.,0.,0.,0.,0
 .,0.,0.,0.,0.,0.,0.,0.,0.,0.,0.,0.,0.,0.,0.,0.,0.,0.,0.,0.,0.,0.,0.,0.
 ,0.,0.,0.,0.,0.,0.,0.,0.,0.,0.,0.,0.,0.,0.,0.,0.,0.,0.,0.,0.,0.,0.,0.,
 0.,0.,0.,0.,0.,0.,0.,0.,0.,0.,0.,0.,0.,0.,0.,0.,0.,0.,0.,0.,0.,0.,0.,0
 .,0.,0.,0.,0.,0.,0.,0.,0.,0.,0.,0.,0.,0.,0.,0.,0.,0.,0.,0.,0.,0.,0.,0.
 ,0.,0.,0.,0.,0.,0.,0.,0.,0.,0.,0.,0.,0.,0.,0.,0.,0.,0.,0.,0.,0.,0.,0.,
 0.,0.,0.,0.,0.,0.,0.,0.,0.,0.,0.,0.,0.,0.,0.,0.,0.,0.,0.,0.,0.,0.,0.,0
 .,0.,0.,0.,0.,0.,0.,0.,0.,0.,0.,0.,0.,0.,0.,0.,0.,0.,0.,0.,0.,0.,0.,0.
 ,0.,0.,0.,0.,0.,0.,0.,0.,0.,0.,0.,0.,0.,0.,0.,0.,0.,0.,0.,0.,0.,0.,0.,
 0.,0.,0.,0.,0.,0.,0.,0.,0.,0.,0.,0.,0.,0.,0.,0.,0.,0.,0.,0.,0.,0.,0.,0
 .,0.,0.,0.,0.,0.,0.,0.,0.,0.,0.,0.,0.,0.,0.,0.,0.,0.,0.,0.,0.,0.,0.,0.
 ,0.00037292,0.00092693,0.00038325,0.00171760,0.00061657,-0.00011443,-0
 .01658479,-0.00280629,-0.00043218,-0.02869769,-0.02189069,0.00759133,-
 0.01418165,0.00102915,0.00320670,-0.02228886,0.00855021,-0.00376109,-0
 .00722352,-0.00543692,-0.00329639,0.02129635,0.00372834,-0.00524077,-0
 .01089443,0.00232322,0.00193896,-0.01024157,0.00377901,-0.00096098,0.0
 2126449,0.00467542,0.00579520,-0.00491538,-0.00538963,0.00306018,0.,0.
 ,0.,0.,0.,0.,0.,0.,0.,0.,0.,0.,0.,0.,0.,0.,0.,0.,0.,0.,0.,0.,0.,0.,0.,
 0.,0.,0.,0.,0.,0.,0.,0.,0.,0.,0.,0.07567839,0.00085455,-0.00931756,-0.
 00231831,0.00027771,-0.00698083,0.00167715,-0.00479652,-0.02234883,-0.
 00051220,-0.02308864,-0.04833040,0.00785234,0.00013537,-0.01687044,-0.
 00018266,0.00877311,-0.02219895,0.00129418,-0.01727286,0.00590468,0.00
 088472,0.00884224,-0.02512585,0.01250217,0.01236129,0.00921591,-0.0022
 6869,0.01285187,0.00816093,0.00117624,0.00556849,-0.02137439,-0.010441
 40,-0.01298454,0.00400521,0.00050374,0.,0.,0.,0.,0.,0.,0.,0.,0.,0.,0.,
 0.,0.,0.,0.,0.,0.,0.,0.,0.,0.,0.,0.,0.,0.,0.,0.,0.,0.,0.,0.,0.,0.,0.,0
 .,0.,0.00974079,0.14769722,0.00028257,-0.00050465,-0.00049665,0.000035
 93,0.00058814,-0.00107447,0.00033872,0.00161545,-0.00234215,0.00610476
 ,0.00547430,-0.00511304,0.00253664,0.00002073,-0.00652946,-0.00064824,
 -0.00011315,-0.00621845,-0.00351303,0.00090927,0.00066741,-0.00597416,
 0.00701414,0.00079883,0.00012271,-0.00085069,0.00020223,0.00000343,0.0
 0038438,0.00069465,0.00379217,-0.00488930,0.00111065,0.00392398,0.0000
 0537,0.00072256,0.,0.,0.,0.,0.,0.,0.,0.,0.,0.,0.,0.,0.,0.,0.,0.,0.,0.,
 0.,0.,0.,0.,0.,0.,0.,0.,0.,0.,0.,0.,0.,0.,0.,0.,0.,0.,-0.00755167,-0.0
 0961671,0.01677311\\0.00001104,0.00000768,-0.00000963,0.00001748,-0.00
 000419,0.00000731,-0.00002839,-0.00004316,0.00004707,-0.00002891,0.000
 05015,0.00010980,-0.00000576,0.00004678,-0.00003119,-0.00003631,0.0000
 4409,0.00004328,0.00005926,0.00002164,-0.00001123,0.00000138,-0.000090
 16,-0.00001197,0.00002014,-0.00002023,0.00000246,0.00004120,-0.0000364
 0,0.00001459,-0.00002003,0.00000423,-0.00005190,-0.00010510,0.00001265
 ,-0.00006592,0.,0.,0.,0.,0.,0.,0.,0.,0.,0.,0.,0.,0.,0.,0.,0.,0.,0.,0.,
 0.,0.,0.,0.,0.,0.,0.,0.,0.,0.,0.,0.,0.,0.,0.,0.,0.,0.00001936,0.000022
 88,-0.00001760\\\@


 AND ALL THIS SCIENCE I DON'T UNDERSTAND
 IT'S JUST MY JOB FIVE DAYS A WEEK

                           -- ELTON JOHN, "ROCKET MAN"
 Job cpu time:       0 days  0 hours  1 minutes 28.7 seconds.
 File lengths (MBytes):  RWF=    409 Int=      0 D2E=      0 Chk=     13 Scr=      1
 Normal termination of Gaussian 09 at Mon May 22 18:29:14 2017.
