 Entering Gaussian System, Link 0=g09
 Initial command:
 /nopt/nrel/apps/gaussian/D.01/g09/l1.exe "/scratch/ngallup/3235904/Gau-5854.inp" -scrdir="/scratch/ngallup/3235904/"
 Default linda workers:  n2060,n2059
 Default is to use  24 SMP processors on each worker.
 Entering Link 1 = /nopt/nrel/apps/gaussian/D.01/g09/l1.exe PID=      5855.
  
 Copyright (c) 1988,1990,1992,1993,1995,1998,2003,2009,2013,
            Gaussian, Inc.  All Rights Reserved.
  
 This is part of the Gaussian(R) 09 program.  It is based on
 the Gaussian(R) 03 system (copyright 2003, Gaussian, Inc.),
 the Gaussian(R) 98 system (copyright 1998, Gaussian, Inc.),
 the Gaussian(R) 94 system (copyright 1995, Gaussian, Inc.),
 the Gaussian 92(TM) system (copyright 1992, Gaussian, Inc.),
 the Gaussian 90(TM) system (copyright 1990, Gaussian, Inc.),
 the Gaussian 88(TM) system (copyright 1988, Gaussian, Inc.),
 the Gaussian 86(TM) system (copyright 1986, Carnegie Mellon
 University), and the Gaussian 82(TM) system (copyright 1983,
 Carnegie Mellon University). Gaussian is a federally registered
 trademark of Gaussian, Inc.
  
 This software contains proprietary and confidential information,
 including trade secrets, belonging to Gaussian, Inc.
  
 This software is provided under written license and may be
 used, copied, transmitted, or stored only in accord with that
 written license.
  
 The following legend is applicable only to US Government
 contracts under FAR:
  
                    RESTRICTED RIGHTS LEGEND
  
 Use, reproduction and disclosure by the US Government is
 subject to restrictions as set forth in subparagraphs (a)
 and (c) of the Commercial Computer Software - Restricted
 Rights clause in FAR 52.227-19.
  
 Gaussian, Inc.
 340 Quinnipiac St., Bldg. 40, Wallingford CT 06492
  
  
 ---------------------------------------------------------------
 Warning -- This program may not be used in any manner that
 competes with the business of Gaussian, Inc. or will provide
 assistance to any competitor of Gaussian, Inc.  The licensee
 of this program is prohibited from giving any competitor of
 Gaussian, Inc. access to this program.  By using this program,
 the user acknowledges that Gaussian, Inc. is engaged in the
 business of creating and licensing software in the field of
 computational chemistry and represents and warrants to the
 licensee that it is not a competitor of Gaussian, Inc. and that
 it will not use this program in any manner prohibited above.
 ---------------------------------------------------------------
  

 Cite this work as:
 Gaussian 09, Revision D.01,
 M. J. Frisch, G. W. Trucks, H. B. Schlegel, G. E. Scuseria, 
 M. A. Robb, J. R. Cheeseman, G. Scalmani, V. Barone, B. Mennucci, 
 G. A. Petersson, H. Nakatsuji, M. Caricato, X. Li, H. P. Hratchian, 
 A. F. Izmaylov, J. Bloino, G. Zheng, J. L. Sonnenberg, M. Hada, 
 M. Ehara, K. Toyota, R. Fukuda, J. Hasegawa, M. Ishida, T. Nakajima, 
 Y. Honda, O. Kitao, H. Nakai, T. Vreven, J. A. Montgomery, Jr., 
 J. E. Peralta, F. Ogliaro, M. Bearpark, J. J. Heyd, E. Brothers, 
 K. N. Kudin, V. N. Staroverov, T. Keith, R. Kobayashi, J. Normand, 
 K. Raghavachari, A. Rendell, J. C. Burant, S. S. Iyengar, J. Tomasi, 
 M. Cossi, N. Rega, J. M. Millam, M. Klene, J. E. Knox, J. B. Cross, 
 V. Bakken, C. Adamo, J. Jaramillo, R. Gomperts, R. E. Stratmann, 
 O. Yazyev, A. J. Austin, R. Cammi, C. Pomelli, J. W. Ochterski, 
 R. L. Martin, K. Morokuma, V. G. Zakrzewski, G. A. Voth, 
 P. Salvador, J. J. Dannenberg, S. Dapprich, A. D. Daniels, 
 O. Farkas, J. B. Foresman, J. V. Ortiz, J. Cioslowski, 
 and D. J. Fox, Gaussian, Inc., Wallingford CT, 2013.
 
 ******************************************
 Gaussian 09:  ES64L-G09RevD.01 24-Apr-2013
                24-May-2017 
 ******************************************
 %chk=Co_charge0_1et_conf1.chk
 SetLPE:  input flags="-vv -opt "Tsnet.Node.lindarsharg: ssh" "
 SetLPE:    new flags="-vv -opt "Tsnet.Node.lindarsharg: ssh"  -nodelist 'n2060.hpc.nrel.gov n2059.hpc.nrel.gov'"
 Will use up to    2 processors via Linda.
 Default route:  CacheSize=163840 MaxDisk=128GB
 ----------------------------------------------------------------------
 # ub3lyp/6-31+g(d) guess=(mix,always) int=ultrafine scf=xqc empiricald
 ispersion=gd3 geom=(check,keepconstants) pop=npa
 ----------------------------------------------------------------------
 1/4=163840,29=10002,38=1/1;
 2/4=163840,12=2,40=1/2;
 3/4=163840,5=1,6=6,7=11,11=2,14=-4,16=1,25=1,30=1,74=-5,75=-5,116=2,124=31/1,2,3;
 4/4=163840,13=-1/1;
 5/4=163840,5=2,8=3,13=1,38=5/2,8;
 6/4=163840,7=2,8=2,9=2,10=2,28=1,40=-1/1,7;
 99/4=163840,5=1,9=1/99;
 -------------
 Automatic NBO
 -------------
 Structure from the checkpoint file:  "Co_charge0_1et_conf1.chk"
 Charge =  0 Multiplicity = 1
 Redundant internal coordinates found in file.
 O,0,3.5132551243,0.3749049936,-0.4488891027
 O,0,-3.1063561288,-0.3895586618,-0.5550816178
 O,0,1.3022676416,1.7622156334,0.1524778112
 O,0,-0.7473882005,-1.6895551183,0.1993422129
 O,0,1.7223477244,-1.5941008499,-0.2450867828
 O,0,-1.1972145987,1.5289969987,-0.2041009106
 Si,0,2.9624010556,1.6834312073,0.3629963229
 Si,0,0.5664804945,-2.5977737956,0.4802487699
 Si,0,3.315345488,-1.2580005208,-0.5336238616
 Si,0,-2.8812605324,1.1774057616,-0.3589349141
 Si,0,-0.1246854958,2.616509404,0.4103390925
 Al,0,-2.5480540956,-1.6370695233,0.5659433192
 H,-1,4.1316401664,-1.8898709208,0.4994683098
 H,-1,3.6494243671,-1.6534361733,-1.8897420298
 H,-1,3.5661836542,2.8389950863,-0.2699489436
 H,-1,3.2491131762,1.5694440115,1.7994089442
 H,-1,-0.0511799701,3.8635658426,-0.3609917948
 H,-1,-0.3499101705,2.8231700239,1.8438218426
 H,-1,-3.2371262171,1.7850881592,-1.6133977826
 H,-1,-3.4806294304,1.795755093,0.8461878045
 H,-1,0.9525695806,-2.7315695733,1.8937558941
 H,-1,0.4862864552,-3.8709343731,-0.2212801268
 H,-1,-2.5594063675,-0.9545734155,1.9892188099
 H,-1,-3.135197244,-3.0060907606,0.1295050726
 Co,0,0.2349002592,-0.0180157714,-0.2537172045
 Recover connectivity data from disk.
                          Input orientation:                          
 ---------------------------------------------------------------------
 Center     Atomic      Atomic             Coordinates (Angstroms)
 Number     Number       Type             X           Y           Z
 ---------------------------------------------------------------------
      1          8           0        3.513255    0.374905   -0.448889
      2          8           0       -3.106356   -0.389559   -0.555082
      3          8           0        1.302268    1.762216    0.152478
      4          8           0       -0.747388   -1.689555    0.199342
      5          8           0        1.722348   -1.594101   -0.245087
      6          8           0       -1.197215    1.528997   -0.204101
      7         14           0        2.962401    1.683431    0.362996
      8         14           0        0.566480   -2.597774    0.480249
      9         14           0        3.315345   -1.258001   -0.533624
     10         14           0       -2.881261    1.177406   -0.358935
     11         14           0       -0.124685    2.616509    0.410339
     12         13           0       -2.548054   -1.637070    0.565943
     13          1           0        4.131640   -1.889871    0.499468
     14          1           0        3.649424   -1.653436   -1.889742
     15          1           0        3.566184    2.838995   -0.269949
     16          1           0        3.249113    1.569444    1.799409
     17          1           0       -0.051180    3.863566   -0.360992
     18          1           0       -0.349910    2.823170    1.843822
     19          1           0       -3.237126    1.785088   -1.613398
     20          1           0       -3.480629    1.795755    0.846188
     21          1           0        0.952570   -2.731570    1.893756
     22          1           0        0.486286   -3.870934   -0.221280
     23          1           0       -2.559406   -0.954573    1.989219
     24          1           0       -3.135197   -3.006091    0.129505
     25         27           0        0.234900   -0.018016   -0.253717
 ---------------------------------------------------------------------
                    Distance matrix (angstroms):
                    1          2          3          4          5
     1  O    0.000000
     2  O    6.664453   0.000000
     3  O    2.678570   4.956484   0.000000
     4  O    4.778628   2.797119   4.014724   0.000000
     5  O    2.669432   4.986321   3.405787   2.511220   0.000000
     6  O    4.855963   2.729261   2.535538   3.274781   4.275426
     7  Si   1.635494   6.478423   1.675281   5.016608   3.556644
     8  Si   4.287610   4.408838   4.433771   1.621734   1.693960
     9  Si   1.647036   6.480193   3.693904   4.150817   1.653439
    10  Si   6.445303   1.595155   4.255050   3.617257   5.374702
    11  Si   4.358632   4.342677   1.683005   4.355969   4.644389
    12  Al   6.466637   1.767677   5.152773   1.838355   4.346947
    13  H    2.531994   7.466700   4.632870   4.892353   2.539002
    14  H    2.491740   7.001377   4.620226   4.868012   2.534174
    15  H    2.471146   7.418062   2.542285   6.271754   4.801322
    16  H    2.559597   7.055020   2.557294   5.399381   4.064356
    17  H    4.988354   5.240309   2.551694   5.624574   5.739770
    18  H    5.116109   4.865630   2.591517   4.819439   5.307549
    19  H    6.993736   2.422029   4.870825   4.643056   6.155288
    20  H    7.253307   2.622829   4.833059   4.476204   6.304996
    21  H    4.657819   5.287409   4.832023   2.616618   2.541858
    22  H    5.219339   5.013829   5.704200   2.541120   2.590827
    23  H    6.677507   2.663055   5.066269   2.650899   4.871810
    24  H    7.481149   2.704761   6.513706   2.727595   5.072453
    25  Co   3.307581   3.375331   2.115063   1.991029   2.167168
                    6          7          8          9         10
     6  O    0.000000
     7  Si   4.200935   0.000000
     8  Si   4.539735   4.907433   0.000000
     9  Si   5.314051   3.095241   3.221675   0.000000
    10  Si   1.727310   5.909791   5.181035   6.660304   0.000000
    11  Si   1.646371   3.225365   5.260356   5.266565   3.203359
    12  Al   3.527281   6.436772   3.260463   5.977641   2.981224
    13  H    6.370272   3.762211   3.634812   1.460437   7.702326
    14  H    6.038143   4.084301   4.001646   1.451563   7.280583
    15  H    4.940688   1.449311   6.254556   4.113127   6.658704
    16  H    4.877040   1.469176   5.128587   3.666316   6.511039
    17  H    2.605422   3.789303   6.545082   6.131373   3.901899
    18  H    2.566475   3.803059   5.664427   5.978486   3.737434
    19  H    2.492577   6.507734   6.169300   7.304874   1.438609
    20  H    2.527499   6.462100   5.984656   7.577241   1.481189
    21  H    5.212965   5.086736   1.471383   3.694088   5.920554
    22  H    5.656300   6.109296   1.455854   3.863749   6.070013
    23  H    3.582505   6.331984   3.840347   6.400743   3.187907
    24  H    4.943085   7.695898   3.740610   6.716030   4.219562
    25  Co   2.108711   3.273304   2.702555   3.332424   3.339246
                   11         12         13         14         15
    11  Si   0.000000
    12  Al   4.897945   0.000000
    13  H    6.199332   6.684807   0.000000
    14  H    6.145463   6.666288   2.448828   0.000000
    15  H    3.759629   7.623501   4.824305   4.776253   0.000000
    16  H    3.795837   6.738718   3.799416   4.914981   2.448374
    17  H    1.468164   6.111512   7.165083   6.816807   3.760765
    18  H    1.465711   5.134058   6.641109   7.069242   4.450176
    19  H    3.804479   4.115278   8.501073   7.702233   7.014314
    20  H    3.482235   3.568265   8.464674   8.379731   7.210526
    21  H    5.653579   3.900690   3.571972   4.769723   6.522560
    22  H    6.546690   3.849298   4.211021   4.207910   7.383176
    23  H    4.601452   1.578494   6.918399   7.354205   7.551017
    24  H    6.384018   1.552235   7.361368   7.206811   8.901298
    25  Co   2.740620   3.322351   4.388133   4.124337   4.388647
                   16         17         18         19         20
    16  H    0.000000
    17  H    4.563142   0.000000
    18  H    3.811400   2.456189   0.000000
    19  H    7.332466   4.004853   4.622337   0.000000
    20  H    6.800683   4.182613   3.442711   2.471633   0.000000
    21  H    4.876652   7.041819   5.705618   7.088997   6.422408
    22  H    6.427606   7.754411   7.055133   6.913204   6.999091
    23  H    6.336055   5.918543   4.378854   4.576450   3.117608
    24  H    8.030163   7.546120   6.684085   5.099362   4.867307
    25  Co   3.977541   3.893588   3.579666   4.141845   4.278401
                   21         22         23         24         25
    21  H    0.000000
    22  H    2.447233   0.000000
    23  H    3.937106   4.761062   0.000000
    24  H    4.460693   3.739806   2.828214   0.000000
    25  Co   3.534128   3.861247   3.703519   4.520289   0.000000
 Stoichiometry    AlCoH12O6Si5
 Framework group  C1[X(AlCoH12O6Si5)]
 Deg. of freedom    69
 Full point group                 C1      NOp   1
 Largest Abelian subgroup         C1      NOp   1
 Largest concise Abelian subgroup C1      NOp   1
                         Standard orientation:                         
 ---------------------------------------------------------------------
 Center     Atomic      Atomic             Coordinates (Angstroms)
 Number     Number       Type             X           Y           Z
 ---------------------------------------------------------------------
      1          8           0        3.274353    0.366244   -0.391141
      2          8           0       -3.342294   -0.393639   -0.630919
      3          8           0        1.052698    1.752436    0.172292
      4          8           0       -0.999358   -1.698218    0.164441
      5          8           0        1.478709   -1.602469   -0.230836
      6          8           0       -1.439398    1.522256   -0.234433
      7         14           0        2.708317    1.671745    0.415153
      8         14           0        0.308227   -2.608411    0.467413
      9         14           0        3.077265   -1.266173   -0.486532
     10         14           0       -3.120256    1.172360   -0.423877
     11         14           0       -0.378596    2.606547    0.405527
     12         13           0       -2.806870   -1.646125    0.495705
     13          1           0        3.872699   -1.902821    0.559815
     14          1           0        3.437790   -1.656204   -1.837432
     15          1           0        3.325083    2.829539   -0.200973
     16          1           0        2.966604    1.551638    1.856451
     17          1           0       -0.289227    3.856737   -0.359026
     18          1           0       -0.631914    2.807417    1.835139
     19          1           0       -3.451001    1.785449   -1.682577
     20          1           0       -3.742922    1.786093    0.771756
     21          1           0        0.666312   -2.748294    1.887686
     22          1           0        0.241182   -3.878609   -0.240835
     23          1           0       -2.845897   -0.969515    1.921299
     24          1           0       -3.386041   -3.012962    0.042107
     25         27           0       -0.007424   -0.025433   -0.262237
 ---------------------------------------------------------------------
 Rotational constants (GHZ):      0.5359885      0.3201564      0.2123620
 Standard basis: 6-31+G(d) (6D, 7F)
 There are   328 symmetry adapted cartesian basis functions of A   symmetry.
 There are   325 symmetry adapted basis functions of A   symmetry.
   325 basis functions,   693 primitive gaussians,   328 cartesian basis functions
    85 alpha electrons       85 beta electrons
       nuclear repulsion energy      2175.0850160205 Hartrees.
 NAtoms=   25 NActive=   25 NUniq=   25 SFac= 1.00D+00 NAtFMM=   60 NAOKFM=F Big=F
 Integral buffers will be    131072 words long.
 Raffenetti 2 integral format.
 Two-electron integral symmetry is turned on.
 Nuclear repulsion after empirical dispersion term =     2175.0508373176 Hartrees.
 One-electron integrals computed using PRISM.
 NBasis=   325 RedAO= T EigKep=  1.94D-06  NBF=   325
 NBsUse=   323 1.00D-06 EigRej=  1.89D-07 NBFU=   323
 ExpMin= 1.33D-02 ExpMax= 6.61D+04 ExpMxC= 9.93D+03 IAcc=3 IRadAn=         5 AccDes= 0.00D+00
 Harris functional with IExCor=  402 and IRadAn=       5 diagonalized for initial guess.
 HarFok:  IExCor=  402 AccDes= 0.00D+00 IRadAn=         5 IDoV= 1 UseB2=F ITyADJ=14
 ICtDFT=  3500011 ScaDFX=  1.000000  1.000000  1.000000  1.000000
 FoFCou: FMM=F IPFlag=           0 FMFlag=      100000 FMFlg1=           0
         NFxFlg=           0 DoJE=T BraDBF=F KetDBF=T FulRan=T
         wScrn=  0.000000 ICntrl=     500 IOpCl=  0 I1Cent=   200000004 NGrid=           0
         NMat0=    1 NMatS0=      1 NMatT0=    0 NMatD0=    1 NMtDS0=    0 NMtDT0=    0
 Petite list used in FoFCou.
 Mixing orbitals, IMix= 1 IMixAn=  0 NRI=1 NE=   85 Coef=  7.07106781D-01  7.07106781D-01
 Mixing orbitals, IMix= 1 IMixAn=  0 NRI=1 NE=   85 Coef= -7.07106781D-01  7.07106781D-01
 Initial guess <Sx>= 0.0000 <Sy>= 0.0000 <Sz>= 0.0000 <S**2>= 1.0000 S= 0.6180
 Requested convergence on RMS density matrix=1.00D-08 within  64 cycles.
 Requested convergence on MAX density matrix=1.00D-06.
 Requested convergence on             energy=1.00D-06.
 No special actions if energy rises.
 Restarting incremental Fock formation.
 Restarting incremental Fock formation.
 SCF Done:  E(UB3LYP) =  -3531.70500381     A.U. after   49 cycles
            NFock= 49  Conv=0.24D-08     -V/T= 2.0036
 <Sx>= 0.0000 <Sy>= 0.0000 <Sz>= 0.0000 <S**2>= 0.9225 S= 0.5828
 <L.S>= 0.000000000000E+00
 Annihilation of the first spin contaminant:
 S**2 before annihilation     0.9225,   after     0.0051
 QCSCF skips out because SCF is already converged.

 **********************************************************************

            Population analysis using the SCF density.

 **********************************************************************

 Orbital symmetries:
 Alpha Orbitals:
       Occupied  (A) (A) (A) (A) (A) (A) (A) (A) (A) (A) (A) (A)
                 (A) (A) (A) (A) (A) (A) (A) (A) (A) (A) (A) (A)
                 (A) (A) (A) (A) (A) (A) (A) (A) (A) (A) (A) (A)
                 (A) (A) (A) (A) (A) (A) (A) (A) (A) (A) (A) (A)
                 (A) (A) (A) (A) (A) (A) (A) (A) (A) (A) (A) (A)
                 (A) (A) (A) (A) (A) (A) (A) (A) (A) (A) (A) (A)
                 (A) (A) (A) (A) (A) (A) (A) (A) (A) (A) (A) (A)
                 (A)
       Virtual   (A) (A) (A) (A) (A) (A) (A) (A) (A) (A) (A) (A)
                 (A) (A) (A) (A) (A) (A) (A) (A) (A) (A) (A) (A)
                 (A) (A) (A) (A) (A) (A) (A) (A) (A) (A) (A) (A)
                 (A) (A) (A) (A) (A) (A) (A) (A) (A) (A) (A) (A)
                 (A) (A) (A) (A) (A) (A) (A) (A) (A) (A) (A) (A)
                 (A) (A) (A) (A) (A) (A) (A) (A) (A) (A) (A) (A)
                 (A) (A) (A) (A) (A) (A) (A) (A) (A) (A) (A) (A)
                 (A) (A) (A) (A) (A) (A) (A) (A) (A) (A) (A) (A)
                 (A) (A) (A) (A) (A) (A) (A) (A) (A) (A) (A) (A)
                 (A) (A) (A) (A) (A) (A) (A) (A) (A) (A) (A) (A)
                 (A) (A) (A) (A) (A) (A) (A) (A) (A) (A) (A) (A)
                 (A) (A) (A) (A) (A) (A) (A) (A) (A) (A) (A) (A)
                 (A) (A) (A) (A) (A) (A) (A) (A) (A) (A) (A) (A)
                 (A) (A) (A) (A) (A) (A) (A) (A) (A) (A) (A) (A)
                 (A) (A) (A) (A) (A) (A) (A) (A) (A) (A) (A) (A)
                 (A) (A) (A) (A) (A) (A) (A) (A) (A) (A) (A) (A)
                 (A) (A) (A) (A) (A) (A) (A) (A) (A) (A) (A) (A)
                 (A) (A) (A) (A) (A) (A) (A) (A) (A) (A) (A) (A)
                 (A) (A) (A) (A) (A) (A) (A) (A) (A) (A) (A) (A)
                 (A) (A) (A) (A) (A) (A) (A) (A) (A) (A)
 Beta  Orbitals:
       Occupied  (A) (A) (A) (A) (A) (A) (A) (A) (A) (A) (A) (A)
                 (A) (A) (A) (A) (A) (A) (A) (A) (A) (A) (A) (A)
                 (A) (A) (A) (A) (A) (A) (A) (A) (A) (A) (A) (A)
                 (A) (A) (A) (A) (A) (A) (A) (A) (A) (A) (A) (A)
                 (A) (A) (A) (A) (A) (A) (A) (A) (A) (A) (A) (A)
                 (A) (A) (A) (A) (A) (A) (A) (A) (A) (A) (A) (A)
                 (A) (A) (A) (A) (A) (A) (A) (A) (A) (A) (A) (A)
                 (A)
       Virtual   (A) (A) (A) (A) (A) (A) (A) (A) (A) (A) (A) (A)
                 (A) (A) (A) (A) (A) (A) (A) (A) (A) (A) (A) (A)
                 (A) (A) (A) (A) (A) (A) (A) (A) (A) (A) (A) (A)
                 (A) (A) (A) (A) (A) (A) (A) (A) (A) (A) (A) (A)
                 (A) (A) (A) (A) (A) (A) (A) (A) (A) (A) (A) (A)
                 (A) (A) (A) (A) (A) (A) (A) (A) (A) (A) (A) (A)
                 (A) (A) (A) (A) (A) (A) (A) (A) (A) (A) (A) (A)
                 (A) (A) (A) (A) (A) (A) (A) (A) (A) (A) (A) (A)
                 (A) (A) (A) (A) (A) (A) (A) (A) (A) (A) (A) (A)
                 (A) (A) (A) (A) (A) (A) (A) (A) (A) (A) (A) (A)
                 (A) (A) (A) (A) (A) (A) (A) (A) (A) (A) (A) (A)
                 (A) (A) (A) (A) (A) (A) (A) (A) (A) (A) (A) (A)
                 (A) (A) (A) (A) (A) (A) (A) (A) (A) (A) (A) (A)
                 (A) (A) (A) (A) (A) (A) (A) (A) (A) (A) (A) (A)
                 (A) (A) (A) (A) (A) (A) (A) (A) (A) (A) (A) (A)
                 (A) (A) (A) (A) (A) (A) (A) (A) (A) (A) (A) (A)
                 (A) (A) (A) (A) (A) (A) (A) (A) (A) (A) (A) (A)
                 (A) (A) (A) (A) (A) (A) (A) (A) (A) (A) (A) (A)
                 (A) (A) (A) (A) (A) (A) (A) (A) (A) (A) (A) (A)
                 (A) (A) (A) (A) (A) (A) (A) (A) (A) (A)
 The electronic state is 1-A.
 Alpha  occ. eigenvalues -- -277.48191 -66.22637 -66.22477 -66.21569 -66.19646
 Alpha  occ. eigenvalues --  -66.16906 -55.99307 -32.80006 -28.45808 -28.44907
 Alpha  occ. eigenvalues --  -28.43665 -19.21614 -19.19702 -19.19216 -19.19161
 Alpha  occ. eigenvalues --  -19.14911 -19.10684  -5.36654  -5.36529  -5.35662
 Alpha  occ. eigenvalues --   -5.33773  -5.31083  -4.07874  -3.72756  -3.72623
 Alpha  occ. eigenvalues --   -3.72590  -3.72457  -3.72318  -3.72206  -3.71755
 Alpha  occ. eigenvalues --   -3.71589  -3.71337  -3.69902  -3.69653  -3.69454
 Alpha  occ. eigenvalues --   -3.67349  -3.67225  -3.66916  -3.66783  -2.63375
 Alpha  occ. eigenvalues --   -2.63252  -2.62927  -2.38477  -2.35971  -2.32195
 Alpha  occ. eigenvalues --   -1.06324  -1.04593  -1.02955  -1.02045  -0.97680
 Alpha  occ. eigenvalues --   -0.94036  -0.65470  -0.62616  -0.58520  -0.54591
 Alpha  occ. eigenvalues --   -0.53399  -0.50385  -0.49079  -0.48020  -0.47585
 Alpha  occ. eigenvalues --   -0.46463  -0.45693  -0.44397  -0.43549  -0.42847
 Alpha  occ. eigenvalues --   -0.42663  -0.41264  -0.40359  -0.39361  -0.38893
 Alpha  occ. eigenvalues --   -0.38172  -0.37765  -0.36868  -0.35610  -0.34347
 Alpha  occ. eigenvalues --   -0.34034  -0.32752  -0.31887  -0.30699  -0.28423
 Alpha  occ. eigenvalues --   -0.24441  -0.22512  -0.22152  -0.20290  -0.19796
 Alpha virt. eigenvalues --   -0.03928  -0.02859  -0.02718  -0.01689  -0.01443
 Alpha virt. eigenvalues --   -0.00940  -0.00372   0.00501   0.00747   0.01188
 Alpha virt. eigenvalues --    0.01731   0.02157   0.02452   0.03034   0.03419
 Alpha virt. eigenvalues --    0.03864   0.03867   0.04209   0.04539   0.05160
 Alpha virt. eigenvalues --    0.05422   0.05650   0.06179   0.06397   0.06731
 Alpha virt. eigenvalues --    0.07667   0.07807   0.08560   0.09008   0.09507
 Alpha virt. eigenvalues --    0.10009   0.10351   0.10973   0.11319   0.11644
 Alpha virt. eigenvalues --    0.11847   0.12330   0.12683   0.12905   0.13459
 Alpha virt. eigenvalues --    0.14091   0.14589   0.14869   0.15338   0.15943
 Alpha virt. eigenvalues --    0.16138   0.16867   0.17808   0.18392   0.18544
 Alpha virt. eigenvalues --    0.19350   0.19984   0.20656   0.21432   0.22564
 Alpha virt. eigenvalues --    0.22799   0.23411   0.23960   0.24372   0.25264
 Alpha virt. eigenvalues --    0.25658   0.25955   0.26916   0.27289   0.28217
 Alpha virt. eigenvalues --    0.29053   0.29507   0.29973   0.30125   0.30799
 Alpha virt. eigenvalues --    0.31344   0.32108   0.32215   0.33053   0.33882
 Alpha virt. eigenvalues --    0.34065   0.34722   0.34969   0.35522   0.35979
 Alpha virt. eigenvalues --    0.36316   0.36538   0.37168   0.37616   0.38409
 Alpha virt. eigenvalues --    0.38697   0.39606   0.39994   0.41123   0.41905
 Alpha virt. eigenvalues --    0.42759   0.43036   0.44799   0.44936   0.46682
 Alpha virt. eigenvalues --    0.48288   0.48973   0.49903   0.51323   0.51808
 Alpha virt. eigenvalues --    0.53238   0.54905   0.57612   0.58091   0.59786
 Alpha virt. eigenvalues --    0.61772   0.62951   0.63407   0.64505   0.65774
 Alpha virt. eigenvalues --    0.66188   0.67518   0.68219   0.69321   0.69762
 Alpha virt. eigenvalues --    0.70421   0.71930   0.72245   0.72853   0.73207
 Alpha virt. eigenvalues --    0.74092   0.74795   0.74915   0.76146   0.76977
 Alpha virt. eigenvalues --    0.77171   0.77539   0.78018   0.79057   0.80035
 Alpha virt. eigenvalues --    0.80928   0.82589   0.83895   0.84883   0.85583
 Alpha virt. eigenvalues --    0.86480   0.92986   0.95049   0.98431   1.01929
 Alpha virt. eigenvalues --    1.05001   1.06348   1.16137   1.17059   1.18113
 Alpha virt. eigenvalues --    1.19198   1.19494   1.20173   1.21909   1.22460
 Alpha virt. eigenvalues --    1.23140   1.24434   1.24700   1.27014   1.28195
 Alpha virt. eigenvalues --    1.29545   1.30369   1.31391   1.33085   1.34605
 Alpha virt. eigenvalues --    1.37276   1.37637   1.37795   1.39776   1.40520
 Alpha virt. eigenvalues --    1.44739   1.46980   1.47578   1.50681   1.53412
 Alpha virt. eigenvalues --    1.54523   1.56919   1.58844   1.62094   1.66056
 Alpha virt. eigenvalues --    1.66493   1.70591   1.73493   1.74297   1.78797
 Alpha virt. eigenvalues --    1.79796   1.80207   1.82669   1.83668   1.85882
 Alpha virt. eigenvalues --    1.86222   1.86379   1.88914   1.90161   1.90356
 Alpha virt. eigenvalues --    1.93437   1.95003   1.98379   1.99499   2.00098
 Alpha virt. eigenvalues --    2.03154   2.04758   2.08378   2.14069   2.15928
 Alpha virt. eigenvalues --    2.18721   2.24478   2.29474   2.31812   2.33838
 Alpha virt. eigenvalues --    2.34402   2.39057   2.39943   2.42707   2.44184
 Alpha virt. eigenvalues --    2.48886   2.49887   2.52579   2.55798   2.64766
 Alpha virt. eigenvalues --    2.67202   2.67897   2.73018   2.73730   2.76512
 Alpha virt. eigenvalues --    2.78310   2.82881   2.95733   2.97002   2.99223
 Alpha virt. eigenvalues --    3.01557   3.03477   3.06964   3.32751   3.50628
 Alpha virt. eigenvalues --    3.67157   4.14430   4.25138   4.28406   4.34134
 Alpha virt. eigenvalues --    4.41054   4.49310  28.04850
  Beta  occ. eigenvalues -- -277.48192 -66.22637 -66.22476 -66.21569 -66.19645
  Beta  occ. eigenvalues --  -66.16906 -55.99307 -32.79973 -28.45832 -28.44835
  Beta  occ. eigenvalues --  -28.43636 -19.21579 -19.19700 -19.19217 -19.19159
  Beta  occ. eigenvalues --  -19.14952 -19.10684  -5.36654  -5.36528  -5.35662
  Beta  occ. eigenvalues --   -5.33772  -5.31083  -4.07874  -3.72755  -3.72621
  Beta  occ. eigenvalues --   -3.72590  -3.72456  -3.72318  -3.72206  -3.71756
  Beta  occ. eigenvalues --   -3.71589  -3.71337  -3.69900  -3.69652  -3.69454
  Beta  occ. eigenvalues --   -3.67273  -3.67225  -3.66916  -3.66783  -2.63375
  Beta  occ. eigenvalues --   -2.63252  -2.62927  -2.38497  -2.35734  -2.32178
  Beta  occ. eigenvalues --   -1.06278  -1.04582  -1.02956  -1.02028  -0.97772
  Beta  occ. eigenvalues --   -0.94037  -0.65456  -0.62614  -0.58518  -0.54579
  Beta  occ. eigenvalues --   -0.53375  -0.50368  -0.49063  -0.48036  -0.47514
  Beta  occ. eigenvalues --   -0.46431  -0.45694  -0.44420  -0.43511  -0.42853
  Beta  occ. eigenvalues --   -0.42634  -0.41241  -0.40223  -0.39605  -0.38955
  Beta  occ. eigenvalues --   -0.38209  -0.37756  -0.36882  -0.35611  -0.34393
  Beta  occ. eigenvalues --   -0.34021  -0.32841  -0.31890  -0.30633  -0.28470
  Beta  occ. eigenvalues --   -0.24549  -0.22546  -0.21879  -0.20230  -0.19724
  Beta virt. eigenvalues --   -0.04013  -0.02821  -0.02742  -0.01673  -0.01300
  Beta virt. eigenvalues --   -0.00596  -0.00358   0.00125   0.00759   0.01308
  Beta virt. eigenvalues --    0.01731   0.02178   0.02429   0.03026   0.03385
  Beta virt. eigenvalues --    0.03859   0.03866   0.04246   0.04527   0.05148
  Beta virt. eigenvalues --    0.05425   0.05645   0.06171   0.06403   0.06733
  Beta virt. eigenvalues --    0.07667   0.07812   0.08565   0.09009   0.09506
  Beta virt. eigenvalues --    0.10017   0.10357   0.10924   0.11325   0.11655
  Beta virt. eigenvalues --    0.11919   0.12241   0.12672   0.12910   0.13415
  Beta virt. eigenvalues --    0.14086   0.14585   0.14868   0.15331   0.15946
  Beta virt. eigenvalues --    0.16127   0.16874   0.17802   0.18389   0.18565
  Beta virt. eigenvalues --    0.19357   0.19989   0.20680   0.21404   0.22559
  Beta virt. eigenvalues --    0.22800   0.23410   0.23962   0.24375   0.25267
  Beta virt. eigenvalues --    0.25658   0.25922   0.26910   0.27273   0.28207
  Beta virt. eigenvalues --    0.29075   0.29504   0.29967   0.30141   0.30786
  Beta virt. eigenvalues --    0.31336   0.32109   0.32212   0.33049   0.33877
  Beta virt. eigenvalues --    0.34030   0.34729   0.34974   0.35514   0.36011
  Beta virt. eigenvalues --    0.36305   0.36503   0.37176   0.37567   0.38416
  Beta virt. eigenvalues --    0.38574   0.39607   0.39996   0.41151   0.41934
  Beta virt. eigenvalues --    0.42721   0.43026   0.44809   0.44917   0.46662
  Beta virt. eigenvalues --    0.48289   0.48982   0.49950   0.51369   0.51805
  Beta virt. eigenvalues --    0.53248   0.54887   0.57579   0.58052   0.59809
  Beta virt. eigenvalues --    0.61772   0.62968   0.63428   0.64552   0.65810
  Beta virt. eigenvalues --    0.66212   0.67485   0.68191   0.69339   0.69753
  Beta virt. eigenvalues --    0.70420   0.71906   0.72244   0.72862   0.73249
  Beta virt. eigenvalues --    0.74088   0.74775   0.74900   0.76138   0.76974
  Beta virt. eigenvalues --    0.77142   0.77547   0.78058   0.79070   0.80114
  Beta virt. eigenvalues --    0.80841   0.82608   0.83885   0.84811   0.85581
  Beta virt. eigenvalues --    0.86577   0.92984   0.95050   0.98426   1.01932
  Beta virt. eigenvalues --    1.05003   1.06354   1.16150   1.17067   1.18114
  Beta virt. eigenvalues --    1.19203   1.19508   1.20176   1.21893   1.22464
  Beta virt. eigenvalues --    1.23115   1.24445   1.24691   1.27010   1.28181
  Beta virt. eigenvalues --    1.29533   1.30387   1.31386   1.33071   1.34643
  Beta virt. eigenvalues --    1.37358   1.37569   1.37788   1.39836   1.40556
  Beta virt. eigenvalues --    1.44721   1.47003   1.47497   1.50769   1.53274
  Beta virt. eigenvalues --    1.54497   1.56896   1.58933   1.62090   1.65932
  Beta virt. eigenvalues --    1.66360   1.70481   1.73641   1.74527   1.78786
  Beta virt. eigenvalues --    1.79820   1.80144   1.82269   1.83654   1.85840
  Beta virt. eigenvalues --    1.86345   1.86617   1.88921   1.90140   1.90400
  Beta virt. eigenvalues --    1.93428   1.94985   1.98364   1.99567   2.00065
  Beta virt. eigenvalues --    2.03143   2.04811   2.08248   2.14091   2.15499
  Beta virt. eigenvalues --    2.18705   2.24511   2.29551   2.31691   2.33778
  Beta virt. eigenvalues --    2.34670   2.39161   2.40199   2.42816   2.43660
  Beta virt. eigenvalues --    2.48629   2.49964   2.52375   2.56041   2.64957
  Beta virt. eigenvalues --    2.67324   2.67920   2.73215   2.73887   2.76760
  Beta virt. eigenvalues --    2.78504   2.83714   2.95684   2.96777   2.98539
  Beta virt. eigenvalues --    3.01515   3.03472   3.06727   3.32466   3.50797
  Beta virt. eigenvalues --    3.67125   4.14432   4.25143   4.28414   4.34147
  Beta virt. eigenvalues --    4.41047   4.49284  28.04881
          Condensed to atoms (all electrons):
               1          2          3          4          5          6
     1  O    8.056744  -0.000013  -0.004771  -0.004226   0.092052  -0.001898
     2  O   -0.000013   8.028717  -0.002381  -0.022291  -0.003174   0.091636
     3  O   -0.004771  -0.002381   8.567758   0.021989  -0.078468   0.091694
     4  O   -0.004226  -0.022291   0.021989   8.164791   0.055830  -0.066897
     5  O    0.092052  -0.003174  -0.078468   0.055830   8.669652   0.013410
     6  O   -0.001898   0.091636   0.091694  -0.066897   0.013410   8.699656
     7  Si   0.237088  -0.000857  -0.107944   0.004130   0.050810  -0.030609
     8  Si   0.031699  -0.006773   0.016026  -0.095400  -0.113873   0.021324
     9  Si   0.021652  -0.001008   0.071376  -0.003671  -0.344884  -0.002031
    10  Si  -0.000253   0.121560  -0.025761   0.057551  -0.000970  -0.203369
    11  Si  -0.005094   0.031836  -0.221905   0.012333   0.013383  -0.207889
    12  Al  -0.000685   0.214708   0.000993   0.031383  -0.020751   0.031113
    13  H   -0.029006   0.000000   0.000322  -0.000060  -0.017394  -0.000011
    14  H    0.005510   0.000002  -0.002206  -0.000780   0.030039   0.000050
    15  H   -0.031659   0.000000  -0.019612   0.000001   0.001579  -0.000450
    16  H   -0.035336  -0.000001   0.003828   0.000004  -0.005267  -0.000419
    17  H   -0.000642  -0.000135  -0.013929  -0.000014   0.000011  -0.001099
    18  H    0.000115  -0.000392   0.001714  -0.000051  -0.000129  -0.018653
    19  H    0.000001  -0.009507  -0.001439  -0.001710   0.000007   0.021811
    20  H    0.000000  -0.013562   0.000726  -0.000667  -0.000015  -0.019525
    21  H   -0.001330   0.000160   0.000111   0.006308  -0.010617  -0.000011
    22  H    0.000126  -0.000086  -0.000005  -0.025529  -0.005441  -0.000112
    23  H   -0.000003  -0.049850  -0.000096  -0.008507   0.000148  -0.012302
    24  H    0.000000  -0.029743  -0.000006  -0.013974  -0.000423   0.000359
    25  Co   0.000715  -0.022862  -0.118990  -0.053834  -0.147005  -0.181501
               7          8          9         10         11         12
     1  O    0.237088   0.031699   0.021652  -0.000253  -0.005094  -0.000685
     2  O   -0.000857  -0.006773  -0.001008   0.121560   0.031836   0.214708
     3  O   -0.107944   0.016026   0.071376  -0.025761  -0.221905   0.000993
     4  O    0.004130  -0.095400  -0.003671   0.057551   0.012333   0.031383
     5  O    0.050810  -0.113873  -0.344884  -0.000970   0.013383  -0.020751
     6  O   -0.030609   0.021324  -0.002031  -0.203369  -0.207889   0.031113
     7  Si  12.945557   0.001117  -0.220121   0.002341  -0.150689  -0.004417
     8  Si   0.001117  13.282999  -0.269705   0.001470   0.011971  -0.067230
     9  Si  -0.220121  -0.269705  13.589312  -0.004350   0.010021   0.000729
    10  Si   0.002341   0.001470  -0.004350  13.046471  -0.182800  -0.177680
    11  Si  -0.150689   0.011971   0.010021  -0.182800  13.467504  -0.011945
    12  Al  -0.004417  -0.067230   0.000729  -0.177680  -0.011945  12.233647
    13  H   -0.005834   0.006611   0.398893  -0.000116  -0.000076  -0.000692
    14  H    0.004527   0.004094   0.291828   0.000128   0.000572   0.000508
    15  H    0.396949  -0.000031  -0.002544   0.000079  -0.000418  -0.000025
    16  H    0.368578  -0.000249   0.008663  -0.000456   0.009928   0.000302
    17  H    0.000257  -0.000245   0.000178  -0.000620   0.361973   0.000944
    18  H    0.002930  -0.000039  -0.000210   0.002302   0.371886  -0.001036
    19  H   -0.000021   0.000123   0.000172   0.304069   0.007120   0.010928
    20  H   -0.000357   0.000591  -0.000263   0.376845   0.007815  -0.016154
    21  H   -0.002813   0.342534   0.012722  -0.000437   0.000417   0.000248
    22  H    0.000990   0.383613  -0.005603   0.000387  -0.000411  -0.004684
    23  H    0.000079  -0.009617  -0.000183   0.019905  -0.004071   0.452144
    24  H   -0.000085  -0.005428   0.000223   0.004093  -0.000156   0.432704
    25  Co   0.026407   0.073876   0.046662   0.084594   0.102335  -0.006066
              13         14         15         16         17         18
     1  O   -0.029006   0.005510  -0.031659  -0.035336  -0.000642   0.000115
     2  O    0.000000   0.000002   0.000000  -0.000001  -0.000135  -0.000392
     3  O    0.000322  -0.002206  -0.019612   0.003828  -0.013929   0.001714
     4  O   -0.000060  -0.000780   0.000001   0.000004  -0.000014  -0.000051
     5  O   -0.017394   0.030039   0.001579  -0.005267   0.000011  -0.000129
     6  O   -0.000011   0.000050  -0.000450  -0.000419  -0.001099  -0.018653
     7  Si  -0.005834   0.004527   0.396949   0.368578   0.000257   0.002930
     8  Si   0.006611   0.004094  -0.000031  -0.000249  -0.000245  -0.000039
     9  Si   0.398893   0.291828  -0.002544   0.008663   0.000178  -0.000210
    10  Si  -0.000116   0.000128   0.000079  -0.000456  -0.000620   0.002302
    11  Si  -0.000076   0.000572  -0.000418   0.009928   0.361973   0.371886
    12  Al  -0.000692   0.000508  -0.000025   0.000302   0.000944  -0.001036
    13  H    0.760285  -0.025793  -0.000017   0.000243   0.000000   0.000000
    14  H   -0.025793   0.771403   0.000009  -0.000025   0.000000   0.000000
    15  H   -0.000017   0.000009   0.751047  -0.026244  -0.000081  -0.000028
    16  H    0.000243  -0.000025  -0.026244   0.760334  -0.000020  -0.000034
    17  H    0.000000   0.000000  -0.000081  -0.000020   0.756883  -0.025411
    18  H    0.000000   0.000000  -0.000028  -0.000034  -0.025411   0.740451
    19  H    0.000000   0.000000   0.000000   0.000000  -0.000046  -0.000014
    20  H    0.000000   0.000000   0.000000   0.000000  -0.000088  -0.000014
    21  H   -0.000108  -0.000016   0.000000   0.000001   0.000000   0.000000
    22  H   -0.000058  -0.000017   0.000000   0.000000   0.000000   0.000000
    23  H    0.000000   0.000000   0.000000   0.000000   0.000000   0.000010
    24  H    0.000000   0.000000   0.000000   0.000000   0.000000   0.000000
    25  Co  -0.008016  -0.003420  -0.001050  -0.008474  -0.005446  -0.010704
              19         20         21         22         23         24
     1  O    0.000001   0.000000  -0.001330   0.000126  -0.000003   0.000000
     2  O   -0.009507  -0.013562   0.000160  -0.000086  -0.049850  -0.029743
     3  O   -0.001439   0.000726   0.000111  -0.000005  -0.000096  -0.000006
     4  O   -0.001710  -0.000667   0.006308  -0.025529  -0.008507  -0.013974
     5  O    0.000007  -0.000015  -0.010617  -0.005441   0.000148  -0.000423
     6  O    0.021811  -0.019525  -0.000011  -0.000112  -0.012302   0.000359
     7  Si  -0.000021  -0.000357  -0.002813   0.000990   0.000079  -0.000085
     8  Si   0.000123   0.000591   0.342534   0.383613  -0.009617  -0.005428
     9  Si   0.000172  -0.000263   0.012722  -0.005603  -0.000183   0.000223
    10  Si   0.304069   0.376845  -0.000437   0.000387   0.019905   0.004093
    11  Si   0.007120   0.007815   0.000417  -0.000411  -0.004071  -0.000156
    12  Al   0.010928  -0.016154   0.000248  -0.004684   0.452144   0.432704
    13  H    0.000000   0.000000  -0.000108  -0.000058   0.000000   0.000000
    14  H    0.000000   0.000000  -0.000016  -0.000017   0.000000   0.000000
    15  H    0.000000   0.000000   0.000000   0.000000   0.000000   0.000000
    16  H    0.000000   0.000000   0.000001   0.000000   0.000000   0.000000
    17  H   -0.000046  -0.000088   0.000000   0.000000   0.000000   0.000000
    18  H   -0.000014  -0.000014   0.000000   0.000000   0.000010   0.000000
    19  H    0.808293  -0.028714   0.000000   0.000000  -0.000066  -0.000001
    20  H   -0.028714   0.807377   0.000000   0.000000   0.000427  -0.000014
    21  H    0.000000   0.000000   0.780296  -0.028134  -0.000095   0.000010
    22  H    0.000000   0.000000  -0.028134   0.768850   0.000000  -0.000244
    23  H   -0.000066   0.000427  -0.000095   0.000000   0.774089  -0.003650
    24  H   -0.000001  -0.000014   0.000010  -0.000244  -0.003650   0.727787
    25  Co  -0.008582  -0.010597  -0.011749  -0.004709  -0.013156  -0.001676
              25
     1  O    0.000715
     2  O   -0.022862
     3  O   -0.118990
     4  O   -0.053834
     5  O   -0.147005
     6  O   -0.181501
     7  Si   0.026407
     8  Si   0.073876
     9  Si   0.046662
    10  Si   0.084594
    11  Si   0.102335
    12  Al  -0.006066
    13  H   -0.008016
    14  H   -0.003420
    15  H   -0.001050
    16  H   -0.008474
    17  H   -0.005446
    18  H   -0.010704
    19  H   -0.008582
    20  H   -0.010597
    21  H   -0.011749
    22  H   -0.004709
    23  H   -0.013156
    24  H   -0.001676
    25  Co  27.053761
          Atomic-Atomic Spin Densities.
               1          2          3          4          5          6
     1  O    0.001113   0.000005  -0.004756  -0.000503   0.004593   0.001003
     2  O    0.000005  -0.001349   0.000050   0.002139  -0.000676  -0.002680
     3  O   -0.004756   0.000050   0.059025   0.001713  -0.010040  -0.030998
     4  O   -0.000503   0.002139   0.001713  -0.048682   0.016748   0.007656
     5  O    0.004593  -0.000676  -0.010040   0.016748  -0.036507   0.000551
     6  O    0.001003  -0.002680  -0.030998   0.007656   0.000551   0.040772
     7  Si  -0.002183  -0.000118   0.011816   0.002644  -0.009582  -0.003282
     8  Si   0.001225   0.000111  -0.009414  -0.026590   0.032863   0.010405
     9  Si  -0.001272  -0.000062   0.007279   0.003837  -0.010246  -0.002965
    10  Si  -0.000024   0.001877  -0.002588  -0.005882   0.002542   0.007369
    11  Si   0.000820  -0.001546   0.031053   0.010967  -0.011259  -0.025665
    12  Al   0.000165   0.000896  -0.002216  -0.005139   0.001550   0.006604
    13  H    0.000260   0.000000  -0.000055   0.000008  -0.000024   0.000001
    14  H    0.000112   0.000000  -0.000060  -0.000034   0.000279   0.000006
    15  H   -0.000569   0.000000  -0.000679   0.000001  -0.000075  -0.000081
    16  H    0.000238   0.000000   0.000283  -0.000031   0.000283   0.000047
    17  H   -0.000001   0.000003  -0.000005   0.000003   0.000000  -0.000418
    18  H    0.000005   0.000000  -0.000129  -0.000042   0.000019   0.000365
    19  H    0.000000  -0.000054   0.000017   0.000039  -0.000003  -0.000055
    20  H    0.000000  -0.000128  -0.000027   0.000042   0.000000  -0.000192
    21  H   -0.000010  -0.000003   0.000115   0.000572  -0.000789  -0.000067
    22  H    0.000002   0.000006  -0.000006   0.000013   0.000879   0.000015
    23  H    0.000000  -0.000159   0.000065   0.000192  -0.000065  -0.000540
    24  H    0.000000   0.000202   0.000000   0.000336   0.000039   0.000053
    25  Co   0.000605   0.000960  -0.032383   0.018443   0.021864  -0.008270
               7          8          9         10         11         12
     1  O   -0.002183   0.001225  -0.001272  -0.000024   0.000820   0.000165
     2  O   -0.000118   0.000111  -0.000062   0.001877  -0.001546   0.000896
     3  O    0.011816  -0.009414   0.007279  -0.002588   0.031053  -0.002216
     4  O    0.002644  -0.026590   0.003837  -0.005882   0.010967  -0.005139
     5  O   -0.009582   0.032863  -0.010246   0.002542  -0.011259   0.001550
     6  O   -0.003282   0.010405  -0.002965   0.007369  -0.025665   0.006604
     7  Si   0.001882  -0.000707   0.002527   0.000633  -0.006001  -0.000365
     8  Si  -0.000707   0.020050  -0.006951  -0.000703   0.000607   0.004263
     9  Si   0.002527  -0.006951   0.004037   0.000145  -0.000179  -0.000832
    10  Si   0.000633  -0.000703   0.000145  -0.005649   0.008716  -0.001108
    11  Si  -0.006001   0.000607  -0.000179   0.008716  -0.031956  -0.001449
    12  Al  -0.000365   0.004263  -0.000832  -0.001108  -0.001449   0.003477
    13  H   -0.000256   0.000603  -0.000652   0.000004  -0.000051   0.000006
    14  H   -0.000136   0.000301  -0.000672   0.000002  -0.000018   0.000010
    15  H    0.001123  -0.000036   0.000133  -0.000006   0.000241  -0.000005
    16  H   -0.000379   0.000014   0.000028  -0.000013   0.000434   0.000010
    17  H   -0.000034   0.000006  -0.000006   0.000007   0.000223   0.000006
    18  H   -0.000020   0.000005   0.000014  -0.000036   0.000269   0.000017
    19  H   -0.000014   0.000024  -0.000005   0.000638  -0.000490   0.000056
    20  H   -0.000008   0.000025  -0.000003   0.000757  -0.000491   0.000128
    21  H    0.000020  -0.001065   0.000244   0.000002  -0.000026  -0.000190
    22  H    0.000009  -0.000746  -0.000006  -0.000018   0.000022   0.000016
    23  H    0.000001  -0.000271   0.000007   0.000225  -0.000052  -0.000200
    24  H    0.000003  -0.000117   0.000017  -0.000139   0.000040  -0.000582
    25  Co   0.001380  -0.024236   0.004973  -0.006000   0.023825  -0.005103
              13         14         15         16         17         18
     1  O    0.000260   0.000112  -0.000569   0.000238  -0.000001   0.000005
     2  O    0.000000   0.000000   0.000000   0.000000   0.000003   0.000000
     3  O   -0.000055  -0.000060  -0.000679   0.000283  -0.000005  -0.000129
     4  O    0.000008  -0.000034   0.000001  -0.000031   0.000003  -0.000042
     5  O   -0.000024   0.000279  -0.000075   0.000283   0.000000   0.000019
     6  O    0.000001   0.000006  -0.000081   0.000047  -0.000418   0.000365
     7  Si  -0.000256  -0.000136   0.001123  -0.000379  -0.000034  -0.000020
     8  Si   0.000603   0.000301  -0.000036   0.000014   0.000006   0.000005
     9  Si  -0.000652  -0.000672   0.000133   0.000028  -0.000006   0.000014
    10  Si   0.000004   0.000002  -0.000006  -0.000013   0.000007  -0.000036
    11  Si  -0.000051  -0.000018   0.000241   0.000434   0.000223   0.000269
    12  Al   0.000006   0.000010  -0.000005   0.000010   0.000006   0.000017
    13  H   -0.000617   0.000038   0.000000   0.000008   0.000000   0.000000
    14  H    0.000038   0.000459  -0.000001   0.000000   0.000000   0.000000
    15  H    0.000000  -0.000001   0.001580  -0.000067  -0.000002   0.000000
    16  H    0.000008   0.000000  -0.000067  -0.000780   0.000000  -0.000001
    17  H    0.000000   0.000000  -0.000002   0.000000  -0.000267   0.000008
    18  H    0.000000   0.000000   0.000000  -0.000001   0.000008  -0.000064
    19  H    0.000000   0.000000   0.000000   0.000000   0.000000   0.000000
    20  H    0.000000   0.000000   0.000000   0.000000   0.000001   0.000003
    21  H   -0.000012   0.000000   0.000000   0.000000   0.000000   0.000000
    22  H    0.000002   0.000001   0.000000   0.000000   0.000000   0.000000
    23  H    0.000000   0.000000   0.000000   0.000000   0.000000   0.000000
    24  H    0.000000   0.000000   0.000000   0.000000   0.000000   0.000000
    25  Co   0.000433  -0.000045  -0.000575  -0.000543   0.000174  -0.000412
              19         20         21         22         23         24
     1  O    0.000000   0.000000  -0.000010   0.000002   0.000000   0.000000
     2  O   -0.000054  -0.000128  -0.000003   0.000006  -0.000159   0.000202
     3  O    0.000017  -0.000027   0.000115  -0.000006   0.000065   0.000000
     4  O    0.000039   0.000042   0.000572   0.000013   0.000192   0.000336
     5  O   -0.000003   0.000000  -0.000789   0.000879  -0.000065   0.000039
     6  O   -0.000055  -0.000192  -0.000067   0.000015  -0.000540   0.000053
     7  Si  -0.000014  -0.000008   0.000020   0.000009   0.000001   0.000003
     8  Si   0.000024   0.000025  -0.001065  -0.000746  -0.000271  -0.000117
     9  Si  -0.000005  -0.000003   0.000244  -0.000006   0.000007   0.000017
    10  Si   0.000638   0.000757   0.000002  -0.000018   0.000225  -0.000139
    11  Si  -0.000490  -0.000491  -0.000026   0.000022  -0.000052   0.000040
    12  Al   0.000056   0.000128  -0.000190   0.000016  -0.000200  -0.000582
    13  H    0.000000   0.000000  -0.000012   0.000002   0.000000   0.000000
    14  H    0.000000   0.000000   0.000000   0.000001   0.000000   0.000000
    15  H    0.000000   0.000000   0.000000   0.000000   0.000000   0.000000
    16  H    0.000000   0.000000   0.000000   0.000000   0.000000   0.000000
    17  H    0.000000   0.000001   0.000000   0.000000   0.000000   0.000000
    18  H    0.000000   0.000003   0.000000   0.000000   0.000000   0.000000
    19  H   -0.000459  -0.000006   0.000000   0.000000  -0.000001   0.000000
    20  H   -0.000006   0.000507   0.000000   0.000000  -0.000022   0.000000
    21  H    0.000000   0.000000   0.000404  -0.000002   0.000003   0.000001
    22  H    0.000000   0.000000  -0.000002  -0.000152   0.000000  -0.000003
    23  H   -0.000001  -0.000022   0.000003   0.000000   0.000464   0.000034
    24  H    0.000000   0.000000   0.000001  -0.000003   0.000034  -0.001183
    25  Co   0.000049  -0.000226   0.000877  -0.000100   0.000620   0.000340
              25
     1  O    0.000605
     2  O    0.000960
     3  O   -0.032383
     4  O    0.018443
     5  O    0.021864
     6  O   -0.008270
     7  Si   0.001380
     8  Si  -0.024236
     9  Si   0.004973
    10  Si  -0.006000
    11  Si   0.023825
    12  Al  -0.005103
    13  H    0.000433
    14  H   -0.000045
    15  H   -0.000575
    16  H   -0.000543
    17  H    0.000174
    18  H   -0.000412
    19  H    0.000049
    20  H   -0.000226
    21  H    0.000877
    22  H   -0.000100
    23  H    0.000620
    24  H    0.000340
    25  Co   0.007554
 Mulliken charges and spin densities:
               1          2
     1  O   -0.330785   0.000828
     2  O   -0.325984  -0.000525
     3  O   -0.179023   0.018059
     4  O   -0.056710  -0.021551
     5  O   -0.178509   0.002945
     6  O   -0.224276  -0.000367
     7  Si   0.481987  -0.001046
     8  Si   0.390541  -0.000336
     9  Si   0.402141  -0.000610
    10  Si   0.575022   0.000752
    11  Si   0.376360  -0.001965
    12  Al  -0.098985   0.000018
    13  H   -0.079175  -0.000305
    14  H   -0.076413   0.000242
    15  H   -0.067504   0.000984
    16  H   -0.075355  -0.000467
    17  H   -0.072471  -0.000302
    18  H   -0.062694   0.000000
    19  H   -0.102425  -0.000265
    20  H   -0.103812   0.000358
    21  H   -0.087501   0.000073
    22  H   -0.078934  -0.000068
    23  H   -0.145206   0.000299
    24  H   -0.109776  -0.000958
    25  Co   0.229485   0.004206
 Sum of Mulliken charges =   0.00000   0.00000
 Mulliken charges and spin densities with hydrogens summed into heavy atoms:
               1          2
     1  O   -0.330785   0.000828
     2  O   -0.325984  -0.000525
     3  O   -0.179023   0.018059
     4  O   -0.056710  -0.021551
     5  O   -0.178509   0.002945
     6  O   -0.224276  -0.000367
     7  Si   0.339129  -0.000528
     8  Si   0.224107  -0.000331
     9  Si   0.246553  -0.000672
    10  Si   0.368785   0.000846
    11  Si   0.241195  -0.002267
    12  Al  -0.353966  -0.000642
    25  Co   0.229485   0.004206
 Electronic spatial extent (au):  <R**2>=           4993.4608
 Charge=              0.0000 electrons
 Dipole moment (field-independent basis, Debye):
    X=              7.2648    Y=              3.8764    Z=              0.7178  Tot=              8.2656
 Quadrupole moment (field-independent basis, Debye-Ang):
   XX=           -139.2674   YY=           -120.1568   ZZ=           -134.4284
   XY=            -12.6805   XZ=              1.6701   YZ=              1.9343
 Traceless Quadrupole moment (field-independent basis, Debye-Ang):
   XX=             -7.9832   YY=             11.1274   ZZ=             -3.1442
   XY=            -12.6805   XZ=              1.6701   YZ=              1.9343
 Octapole moment (field-independent basis, Debye-Ang**2):
  XXX=             84.5732  YYY=             35.5632  ZZZ=            -28.5154  XYY=             38.0805
  XXY=             36.6463  XXZ=             -1.5474  XZZ=             20.8601  YZZ=              4.5807
  YYZ=              7.2428  XYZ=              6.6174
 Hexadecapole moment (field-independent basis, Debye-Ang**3):
 XXXX=          -4212.1186 YYYY=          -2539.7721 ZZZZ=           -466.9344 XXXY=           -155.4332
 XXXZ=             14.0257 YYYX=           -109.1079 YYYZ=             12.7833 ZZZX=             32.0306
 ZZZY=             13.8709 XXYY=          -1162.2863 XXZZ=           -821.2303 YYZZ=           -504.0083
 XXYZ=             17.6097 YYXZ=              0.2858 ZZXY=             -1.7550
 N-N= 2.175050837318D+03 E-N=-1.275012851095D+04  KE= 3.518975033772D+03
                          Isotropic Fermi Contact Couplings
        Atom                 a.u.       MegaHertz       Gauss      10(-4) cm-1
     1  O(17)             -0.00047       0.14187       0.05062       0.04732
     2  O(17)              0.00015      -0.04502      -0.01607      -0.01502
     3  O(17)              0.02989      -9.06029      -3.23293      -3.02219
     4  O(17)             -0.01839       5.57379       1.98887       1.85922
     5  O(17)              0.00083      -0.25205      -0.08994      -0.08407
     6  O(17)              0.00628      -1.90257      -0.67888      -0.63463
     7  Si(29)             0.00015      -0.06763      -0.02413      -0.02256
     8  Si(29)             0.00089      -0.39328      -0.14033      -0.13118
     9  Si(29)            -0.00017       0.07442       0.02656       0.02482
    10  Si(29)             0.00012      -0.05148      -0.01837      -0.01717
    11  Si(29)            -0.00008       0.03359       0.01199       0.01121
    12  Al(27)             0.00023       0.13129       0.04685       0.04379
    13  H(1)              -0.00010      -0.22081      -0.07879      -0.07365
    14  H(1)               0.00009       0.20193       0.07205       0.06736
    15  H(1)               0.00041       0.90988       0.32467       0.30350
    16  H(1)              -0.00018      -0.40867      -0.14582      -0.13632
    17  H(1)              -0.00011      -0.25481      -0.09092      -0.08500
    18  H(1)               0.00000      -0.00717      -0.00256      -0.00239
    19  H(1)              -0.00010      -0.22146      -0.07902      -0.07387
    20  H(1)               0.00016       0.36252       0.12936       0.12092
    21  H(1)               0.00003       0.05917       0.02111       0.01974
    22  H(1)              -0.00001      -0.03242      -0.01157      -0.01081
    23  H(1)               0.00011       0.25377       0.09055       0.08465
    24  H(1)              -0.00039      -0.87940      -0.31379      -0.29334
    25  Co(59)            -0.00548      -2.89961      -1.03465      -0.96721
 --------------------------------------------------------
       Center         ----  Spin Dipole Couplings  ----
                      3XX-RR        3YY-RR        3ZZ-RR
 --------------------------------------------------------
     1   Atom       -0.000344      0.001217     -0.000873
     2   Atom       -0.000526      0.000152      0.000373
     3   Atom        0.002419      0.047771     -0.050190
     4   Atom       -0.002438     -0.071519      0.073958
     5   Atom       -0.003112      0.004936     -0.001824
     6   Atom        0.009785     -0.007428     -0.002357
     7   Atom        0.001948     -0.000077     -0.001871
     8   Atom        0.002142     -0.002337      0.000195
     9   Atom        0.000662     -0.000847      0.000185
    10   Atom        0.000849     -0.000289     -0.000561
    11   Atom        0.000849      0.000534     -0.001383
    12   Atom       -0.001031      0.000485      0.000545
    13   Atom        0.000031      0.000003     -0.000034
    14   Atom        0.000003     -0.000076      0.000073
    15   Atom        0.000140     -0.000021     -0.000119
    16   Atom        0.000184     -0.000097     -0.000086
    17   Atom        0.000225     -0.000090     -0.000135
    18   Atom       -0.000029      0.000108     -0.000079
    19   Atom       -0.000064      0.000042      0.000022
    20   Atom        0.000014     -0.000031      0.000017
    21   Atom        0.000041     -0.000089      0.000048
    22   Atom       -0.000223      0.000013      0.000210
    23   Atom       -0.000147      0.000108      0.000040
    24   Atom       -0.000107      0.000010      0.000096
    25   Atom        0.324891      0.152856     -0.477747
 --------------------------------------------------------
                        XY            XZ            YZ
 --------------------------------------------------------
     1   Atom       -0.000837     -0.000977     -0.001174
     2   Atom        0.001289      0.000028     -0.001210
     3   Atom        0.030830     -0.019147     -0.026832
     4   Atom       -0.048821     -0.030949     -0.058302
     5   Atom       -0.002028      0.000043      0.002982
     6   Atom       -0.002649     -0.007178      0.015084
     7   Atom       -0.001995      0.001001     -0.000840
     8   Atom       -0.000499     -0.003366     -0.000740
     9   Atom       -0.000448      0.000144      0.000315
    10   Atom        0.000589      0.000180      0.000084
    11   Atom       -0.000765     -0.000434     -0.000819
    12   Atom        0.000259      0.000514     -0.000342
    13   Atom       -0.000029     -0.000038      0.000055
    14   Atom        0.000109      0.000024      0.000041
    15   Atom       -0.000063     -0.000147     -0.000206
    16   Atom        0.000067      0.000194     -0.000043
    17   Atom       -0.000008      0.000073     -0.000333
    18   Atom       -0.000174     -0.000135      0.000154
    19   Atom       -0.000047      0.000058      0.000014
    20   Atom        0.000034      0.000025      0.000063
    21   Atom        0.000119     -0.000169      0.000087
    22   Atom        0.000061     -0.000005     -0.000141
    23   Atom        0.000034      0.000176     -0.000051
    24   Atom        0.000017     -0.000029     -0.000093
    25   Atom        0.130011      2.794942      3.835811
 --------------------------------------------------------


 ---------------------------------------------------------------------------------
              Anisotropic Spin Dipole Couplings in Principal Axis System
 ---------------------------------------------------------------------------------

       Atom             a.u.   MegaHertz   Gauss  10(-4) cm-1        Axes

              Baa    -0.0022     0.161     0.057     0.054  0.5547  0.3864  0.7369
     1 O(17)  Bbb     0.0004    -0.029    -0.010    -0.010  0.8053 -0.0267 -0.5922
              Bcc     0.0018    -0.132    -0.047    -0.044 -0.2091  0.9220 -0.3260
 
              Baa    -0.0018     0.132     0.047     0.044  0.6586 -0.6556 -0.3694
     2 O(17)  Bbb     0.0000     0.001     0.000     0.000  0.6475  0.2435  0.7222
              Bcc     0.0018    -0.133    -0.047    -0.044  0.3835  0.7148 -0.5848
 
              Baa    -0.0594     4.296     1.533     1.433  0.2076  0.1810  0.9613
     3 O(17)  Bbb    -0.0127     0.919     0.328     0.306  0.8688 -0.4857 -0.0961
              Bcc     0.0721    -5.215    -1.861    -1.740  0.4495  0.8552 -0.2581
 
              Baa    -0.1193     8.634     3.081     2.880  0.4363  0.8398  0.3232
     4 O(17)  Bbb     0.0228    -1.651    -0.589    -0.551  0.8861 -0.4634  0.0079
              Bcc     0.0965    -6.983    -2.492    -2.329 -0.1564 -0.2829  0.9463
 
              Baa    -0.0040     0.290     0.103     0.097  0.8033  0.3442 -0.4860
     5 O(17)  Bbb    -0.0024     0.176     0.063     0.059  0.5629 -0.1722  0.8084
              Bcc     0.0064    -0.466    -0.166    -0.155 -0.1946  0.9230  0.3321
 
              Baa    -0.0204     1.478     0.527     0.493 -0.0912  0.7464 -0.6593
     6 O(17)  Bbb     0.0030    -0.221    -0.079    -0.074  0.7127  0.5113  0.4802
              Bcc     0.0174    -1.258    -0.449    -0.419  0.6955 -0.4261 -0.5786
 
              Baa    -0.0022     0.236     0.084     0.079 -0.0901  0.2896  0.9529
     7 Si(29) Bbb    -0.0013     0.134     0.048     0.045  0.5603  0.8058 -0.1919
              Bcc     0.0035    -0.370    -0.132    -0.123  0.8234 -0.5166  0.2349
 
              Baa    -0.0032     0.342     0.122     0.114  0.4214  0.7075  0.5673
     8 Si(29) Bbb    -0.0014     0.153     0.055     0.051 -0.4294  0.7066 -0.5624
              Bcc     0.0047    -0.496    -0.177    -0.165  0.7988  0.0066 -0.6016
 
              Baa    -0.0011     0.113     0.040     0.038  0.2628  0.9279 -0.2646
     9 Si(29) Bbb     0.0003    -0.029    -0.010    -0.010 -0.0304  0.2820  0.9589
              Bcc     0.0008    -0.084    -0.030    -0.028  0.9644 -0.2440  0.1023
 
              Baa    -0.0006     0.062     0.022     0.021 -0.0474 -0.1846  0.9817
    10 Si(29) Bbb    -0.0005     0.057     0.020     0.019 -0.4029  0.9028  0.1503
              Bcc     0.0011    -0.119    -0.042    -0.040  0.9140  0.3884  0.1172
 
              Baa    -0.0019     0.197     0.070     0.066  0.2507  0.3842  0.8885
    11 Si(29) Bbb     0.0004    -0.040    -0.014    -0.013  0.6192  0.6419 -0.4523
              Bcc     0.0015    -0.158    -0.056    -0.053  0.7441 -0.6636  0.0770
 
              Baa    -0.0013    -0.174    -0.062    -0.058  0.9317 -0.1985 -0.3041
    12 Al(27) Bbb     0.0004     0.051     0.018     0.017  0.3378  0.7811  0.5251
              Bcc     0.0009     0.123     0.044     0.041  0.1333 -0.5920  0.7948
 
              Baa    -0.0001    -0.040    -0.014    -0.013  0.1518 -0.5263  0.8366
    13 H(1)   Bbb     0.0000    -0.004    -0.001    -0.001  0.7301  0.6303  0.2640
              Bcc     0.0001     0.044     0.016     0.015  0.6662 -0.5708 -0.4800
 
              Baa    -0.0002    -0.082    -0.029    -0.027 -0.5575  0.8252 -0.0909
    14 H(1)   Bbb     0.0000     0.018     0.006     0.006 -0.6058 -0.3295  0.7241
              Bcc     0.0001     0.064     0.023     0.021  0.5676  0.4588  0.6836
 
              Baa    -0.0003    -0.177    -0.063    -0.059  0.3135  0.5664  0.7622
    15 H(1)   Bbb     0.0001     0.064     0.023     0.021 -0.4535  0.7945 -0.4039
              Bcc     0.0002     0.113     0.040     0.038  0.8343  0.2190 -0.5059
 
              Baa    -0.0002    -0.120    -0.043    -0.040 -0.4383  0.4821  0.7586
    16 H(1)   Bbb    -0.0001    -0.034    -0.012    -0.011  0.1359  0.8698 -0.4742
              Bcc     0.0003     0.154     0.055     0.051  0.8885  0.1047  0.4468
 
              Baa    -0.0004    -0.240    -0.086    -0.080 -0.0716  0.6770  0.7325
    17 H(1)   Bbb     0.0002     0.090     0.032     0.030  0.6798  0.5705 -0.4608
              Bcc     0.0003     0.150     0.053     0.050  0.7299 -0.4650  0.5011
 
              Baa    -0.0002    -0.102    -0.037    -0.034  0.5876 -0.0734  0.8058
    18 H(1)   Bbb    -0.0001    -0.073    -0.026    -0.024  0.6175  0.6842 -0.3880
              Bcc     0.0003     0.176     0.063     0.059 -0.5229  0.7256  0.4474
 
              Baa    -0.0001    -0.058    -0.021    -0.019  0.8585  0.3059 -0.4117
    19 H(1)   Bbb     0.0000     0.024     0.009     0.008  0.1892  0.5571  0.8086
              Bcc     0.0001     0.034     0.012     0.011 -0.4767  0.7721 -0.4204
 
              Baa    -0.0001    -0.041    -0.015    -0.014 -0.1708  0.8390 -0.5166
    20 H(1)   Bbb     0.0000    -0.004    -0.001    -0.001  0.8462 -0.1437 -0.5131
              Bcc     0.0001     0.045     0.016     0.015  0.5047  0.5248  0.6854
 
              Baa    -0.0003    -0.136    -0.048    -0.045 -0.5543  0.6650 -0.5005
    21 H(1)   Bbb     0.0000     0.021     0.007     0.007  0.4096  0.7415  0.5314
              Bcc     0.0002     0.115     0.041     0.038  0.7245  0.0895 -0.6834
 
              Baa    -0.0002    -0.128    -0.046    -0.043  0.9599 -0.2706 -0.0738
    22 H(1)   Bbb     0.0000    -0.024    -0.009    -0.008  0.2730  0.8409  0.4673
              Bcc     0.0003     0.152     0.054     0.051 -0.0644 -0.4687  0.8810
 
              Baa    -0.0003    -0.140    -0.050    -0.047  0.8426 -0.1495 -0.5174
    23 H(1)   Bbb     0.0001     0.054     0.019     0.018  0.3739  0.8538  0.3623
              Bcc     0.0002     0.086     0.031     0.029  0.3876 -0.4987  0.7753
 
              Baa    -0.0001    -0.059    -0.021    -0.020  0.9922 -0.0518  0.1131
    24 H(1)   Bbb     0.0000    -0.026    -0.009    -0.009 -0.0171  0.8436  0.5367
              Bcc     0.0002     0.086     0.031     0.029 -0.1232 -0.5345  0.8361
 
              Baa    -4.8356  -610.633  -217.889  -203.685 -0.3849 -0.5563  0.7365
    25 Co(59) Bbb     0.1411    17.814     6.356     5.942  0.8060 -0.5914 -0.0255
              Bcc     4.6945   592.820   211.533   197.743  0.4497  0.5838  0.6760
 

 ---------------------------------------------------------------------------------

 ******************************Gaussian NBO Version 3.1******************************
             N A T U R A L   A T O M I C   O R B I T A L   A N D
          N A T U R A L   B O N D   O R B I T A L   A N A L Y S I S
 ******************************Gaussian NBO Version 3.1******************************
       /RESON  / : Allow strongly delocalized NBO set

 Analyzing the SCF density

 Job title: Automatic NBO                                                   

 Storage needed:    319100 in NPA (2147480173 available)


 NATURAL POPULATIONS:  Natural atomic orbital occupancies 
                                                          
   NAO  Atom  No  lang   Type(AO)    Occupancy
 --------------------------------------------
     1    O    1  S      Cor( 1S)     1.99988
     2    O    1  S      Val( 2S)     1.73273
     3    O    1  S      Ryd( 3S)     0.00249
     4    O    1  S      Ryd( 4S)     0.00021
     5    O    1  S      Ryd( 5S)     0.00004
     6    O    1  px     Val( 2p)     1.87870
     7    O    1  px     Ryd( 3p)     0.00133
     8    O    1  px     Ryd( 4p)     0.00030
     9    O    1  py     Val( 2p)     1.75412
    10    O    1  py     Ryd( 3p)     0.00238
    11    O    1  py     Ryd( 4p)     0.00040
    12    O    1  pz     Val( 2p)     1.88768
    13    O    1  pz     Ryd( 3p)     0.00266
    14    O    1  pz     Ryd( 4p)     0.00046
    15    O    1  dxy    Ryd( 3d)     0.00076
    16    O    1  dxz    Ryd( 3d)     0.00117
    17    O    1  dyz    Ryd( 3d)     0.00107
    18    O    1  dx2y2  Ryd( 3d)     0.00077
    19    O    1  dz2    Ryd( 3d)     0.00082

    20    O    2  S      Cor( 1S)     1.99991
    21    O    2  S      Val( 2S)     1.76516
    22    O    2  S      Ryd( 3S)     0.00225
    23    O    2  S      Ryd( 4S)     0.00031
    24    O    2  S      Ryd( 5S)     0.00004
    25    O    2  px     Val( 2p)     1.86248
    26    O    2  px     Ryd( 3p)     0.00112
    27    O    2  px     Ryd( 4p)     0.00019
    28    O    2  py     Val( 2p)     1.76704
    29    O    2  py     Ryd( 3p)     0.00172
    30    O    2  py     Ryd( 4p)     0.00033
    31    O    2  pz     Val( 2p)     1.88707
    32    O    2  pz     Ryd( 3p)     0.00201
    33    O    2  pz     Ryd( 4p)     0.00047
    34    O    2  dxy    Ryd( 3d)     0.00067
    35    O    2  dxz    Ryd( 3d)     0.00116
    36    O    2  dyz    Ryd( 3d)     0.00124
    37    O    2  dx2y2  Ryd( 3d)     0.00073
    38    O    2  dz2    Ryd( 3d)     0.00103

    39    O    3  S      Cor( 1S)     1.99988
    40    O    3  S      Val( 2S)     1.73250
    41    O    3  S      Ryd( 3S)     0.00379
    42    O    3  S      Ryd( 4S)     0.00026
    43    O    3  S      Ryd( 5S)     0.00003
    44    O    3  px     Val( 2p)     1.76173
    45    O    3  px     Ryd( 3p)     0.00120
    46    O    3  px     Ryd( 4p)     0.00082
    47    O    3  py     Val( 2p)     1.86591
    48    O    3  py     Ryd( 3p)     0.00465
    49    O    3  py     Ryd( 4p)     0.00029
    50    O    3  pz     Val( 2p)     1.91705
    51    O    3  pz     Ryd( 3p)     0.00431
    52    O    3  pz     Ryd( 4p)     0.00062
    53    O    3  dxy    Ryd( 3d)     0.00042
    54    O    3  dxz    Ryd( 3d)     0.00039
    55    O    3  dyz    Ryd( 3d)     0.00033
    56    O    3  dx2y2  Ryd( 3d)     0.00101
    57    O    3  dz2    Ryd( 3d)     0.00072

    58    O    4  S      Cor( 1S)     1.99991
    59    O    4  S      Val( 2S)     1.75332
    60    O    4  S      Ryd( 3S)     0.00441
    61    O    4  S      Ryd( 4S)     0.00037
    62    O    4  S      Ryd( 5S)     0.00002
    63    O    4  px     Val( 2p)     1.81336
    64    O    4  px     Ryd( 3p)     0.00171
    65    O    4  px     Ryd( 4p)     0.00064
    66    O    4  py     Val( 2p)     1.83803
    67    O    4  py     Ryd( 3p)     0.00494
    68    O    4  py     Ryd( 4p)     0.00029
    69    O    4  pz     Val( 2p)     1.90024
    70    O    4  pz     Ryd( 3p)     0.00549
    71    O    4  pz     Ryd( 4p)     0.00043
    72    O    4  dxy    Ryd( 3d)     0.00079
    73    O    4  dxz    Ryd( 3d)     0.00050
    74    O    4  dyz    Ryd( 3d)     0.00034
    75    O    4  dx2y2  Ryd( 3d)     0.00037
    76    O    4  dz2    Ryd( 3d)     0.00055

    77    O    5  S      Cor( 1S)     1.99988
    78    O    5  S      Val( 2S)     1.73364
    79    O    5  S      Ryd( 3S)     0.00286
    80    O    5  S      Ryd( 4S)     0.00020
    81    O    5  S      Ryd( 5S)     0.00003
    82    O    5  px     Val( 2p)     1.78452
    83    O    5  px     Ryd( 3p)     0.00213
    84    O    5  px     Ryd( 4p)     0.00043
    85    O    5  py     Val( 2p)     1.85145
    86    O    5  py     Ryd( 3p)     0.00332
    87    O    5  py     Ryd( 4p)     0.00021
    88    O    5  pz     Val( 2p)     1.91249
    89    O    5  pz     Ryd( 3p)     0.00509
    90    O    5  pz     Ryd( 4p)     0.00050
    91    O    5  dxy    Ryd( 3d)     0.00028
    92    O    5  dxz    Ryd( 3d)     0.00041
    93    O    5  dyz    Ryd( 3d)     0.00033
    94    O    5  dx2y2  Ryd( 3d)     0.00048
    95    O    5  dz2    Ryd( 3d)     0.00042

    96    O    6  S      Cor( 1S)     1.99988
    97    O    6  S      Val( 2S)     1.73866
    98    O    6  S      Ryd( 3S)     0.00353
    99    O    6  S      Ryd( 4S)     0.00019
   100    O    6  S      Ryd( 5S)     0.00003
   101    O    6  px     Val( 2p)     1.78949
   102    O    6  px     Ryd( 3p)     0.00262
   103    O    6  px     Ryd( 4p)     0.00054
   104    O    6  py     Val( 2p)     1.83268
   105    O    6  py     Ryd( 3p)     0.00376
   106    O    6  py     Ryd( 4p)     0.00021
   107    O    6  pz     Val( 2p)     1.91273
   108    O    6  pz     Ryd( 3p)     0.00673
   109    O    6  pz     Ryd( 4p)     0.00054
   110    O    6  dxy    Ryd( 3d)     0.00035
   111    O    6  dxz    Ryd( 3d)     0.00036
   112    O    6  dyz    Ryd( 3d)     0.00052
   113    O    6  dx2y2  Ryd( 3d)     0.00047
   114    O    6  dz2    Ryd( 3d)     0.00055

   115   Si    7  S      Cor( 1S)     2.00000
   116   Si    7  S      Cor( 2S)     1.99790
   117   Si    7  S      Val( 3S)     0.83476
   118   Si    7  S      Ryd( 4S)     0.00191
   119   Si    7  S      Ryd( 5S)     0.00060
   120   Si    7  S      Ryd( 6S)     0.00018
   121   Si    7  px     Cor( 2p)     1.99963
   122   Si    7  px     Val( 3p)     0.30607
   123   Si    7  px     Ryd( 4p)     0.00127
   124   Si    7  px     Ryd( 5p)     0.00037
   125   Si    7  py     Cor( 2p)     1.99974
   126   Si    7  py     Val( 3p)     0.45913
   127   Si    7  py     Ryd( 4p)     0.00135
   128   Si    7  py     Ryd( 5p)     0.00033
   129   Si    7  pz     Cor( 2p)     1.99981
   130   Si    7  pz     Val( 3p)     0.58987
   131   Si    7  pz     Ryd( 4p)     0.00124
   132   Si    7  pz     Ryd( 5p)     0.00031
   133   Si    7  dxy    Ryd( 3d)     0.00970
   134   Si    7  dxz    Ryd( 3d)     0.00673
   135   Si    7  dyz    Ryd( 3d)     0.00701
   136   Si    7  dx2y2  Ryd( 3d)     0.00908
   137   Si    7  dz2    Ryd( 3d)     0.01410

   138   Si    8  S      Cor( 1S)     2.00000
   139   Si    8  S      Cor( 2S)     1.99719
   140   Si    8  S      Val( 3S)     0.83750
   141   Si    8  S      Ryd( 4S)     0.00292
   142   Si    8  S      Ryd( 5S)     0.00056
   143   Si    8  S      Ryd( 6S)     0.00017
   144   Si    8  px     Cor( 2p)     1.99966
   145   Si    8  px     Val( 3p)     0.27296
   146   Si    8  px     Ryd( 4p)     0.00096
   147   Si    8  px     Ryd( 5p)     0.00018
   148   Si    8  py     Cor( 2p)     1.99970
   149   Si    8  py     Val( 3p)     0.48931
   150   Si    8  py     Ryd( 4p)     0.00230
   151   Si    8  py     Ryd( 5p)     0.00043
   152   Si    8  pz     Cor( 2p)     1.99981
   153   Si    8  pz     Val( 3p)     0.60502
   154   Si    8  pz     Ryd( 4p)     0.00179
   155   Si    8  pz     Ryd( 5p)     0.00026
   156   Si    8  dxy    Ryd( 3d)     0.00571
   157   Si    8  dxz    Ryd( 3d)     0.00758
   158   Si    8  dyz    Ryd( 3d)     0.00863
   159   Si    8  dx2y2  Ryd( 3d)     0.01139
   160   Si    8  dz2    Ryd( 3d)     0.01243

   161   Si    9  S      Cor( 1S)     2.00000
   162   Si    9  S      Cor( 2S)     1.99796
   163   Si    9  S      Val( 3S)     0.83221
   164   Si    9  S      Ryd( 4S)     0.00162
   165   Si    9  S      Ryd( 5S)     0.00077
   166   Si    9  S      Ryd( 6S)     0.00023
   167   Si    9  px     Cor( 2p)     1.99965
   168   Si    9  px     Val( 3p)     0.35039
   169   Si    9  px     Ryd( 4p)     0.00101
   170   Si    9  px     Ryd( 5p)     0.00033
   171   Si    9  py     Cor( 2p)     1.99969
   172   Si    9  py     Val( 3p)     0.32955
   173   Si    9  py     Ryd( 4p)     0.00074
   174   Si    9  py     Ryd( 5p)     0.00051
   175   Si    9  pz     Cor( 2p)     1.99985
   176   Si    9  pz     Val( 3p)     0.67056
   177   Si    9  pz     Ryd( 4p)     0.00102
   178   Si    9  pz     Ryd( 5p)     0.00022
   179   Si    9  dxy    Ryd( 3d)     0.00750
   180   Si    9  dxz    Ryd( 3d)     0.01091
   181   Si    9  dyz    Ryd( 3d)     0.00972
   182   Si    9  dx2y2  Ryd( 3d)     0.00559
   183   Si    9  dz2    Ryd( 3d)     0.00961

   184   Si   10  S      Cor( 1S)     2.00000
   185   Si   10  S      Cor( 2S)     1.99797
   186   Si   10  S      Val( 3S)     0.82330
   187   Si   10  S      Ryd( 4S)     0.00252
   188   Si   10  S      Ryd( 5S)     0.00067
   189   Si   10  S      Ryd( 6S)     0.00017
   190   Si   10  px     Cor( 2p)     1.99962
   191   Si   10  px     Val( 3p)     0.32830
   192   Si   10  px     Ryd( 4p)     0.00131
   193   Si   10  px     Ryd( 5p)     0.00030
   194   Si   10  py     Cor( 2p)     1.99975
   195   Si   10  py     Val( 3p)     0.38713
   196   Si   10  py     Ryd( 4p)     0.00112
   197   Si   10  py     Ryd( 5p)     0.00072
   198   Si   10  pz     Cor( 2p)     1.99984
   199   Si   10  pz     Val( 3p)     0.66621
   200   Si   10  pz     Ryd( 4p)     0.00172
   201   Si   10  pz     Ryd( 5p)     0.00021
   202   Si   10  dxy    Ryd( 3d)     0.00944
   203   Si   10  dxz    Ryd( 3d)     0.00665
   204   Si   10  dyz    Ryd( 3d)     0.01713
   205   Si   10  dx2y2  Ryd( 3d)     0.00591
   206   Si   10  dz2    Ryd( 3d)     0.00822

   207   Si   11  S      Cor( 1S)     2.00000
   208   Si   11  S      Cor( 2S)     1.99717
   209   Si   11  S      Val( 3S)     0.85115
   210   Si   11  S      Ryd( 4S)     0.00239
   211   Si   11  S      Ryd( 5S)     0.00064
   212   Si   11  S      Ryd( 6S)     0.00018
   213   Si   11  px     Cor( 2p)     1.99966
   214   Si   11  px     Val( 3p)     0.25696
   215   Si   11  px     Ryd( 4p)     0.00124
   216   Si   11  px     Ryd( 5p)     0.00023
   217   Si   11  py     Cor( 2p)     1.99968
   218   Si   11  py     Val( 3p)     0.47215
   219   Si   11  py     Ryd( 4p)     0.00229
   220   Si   11  py     Ryd( 5p)     0.00037
   221   Si   11  pz     Cor( 2p)     1.99981
   222   Si   11  pz     Val( 3p)     0.62675
   223   Si   11  pz     Ryd( 4p)     0.00169
   224   Si   11  pz     Ryd( 5p)     0.00018
   225   Si   11  dxy    Ryd( 3d)     0.00522
   226   Si   11  dxz    Ryd( 3d)     0.00518
   227   Si   11  dyz    Ryd( 3d)     0.00974
   228   Si   11  dx2y2  Ryd( 3d)     0.01025
   229   Si   11  dz2    Ryd( 3d)     0.01306

   230   Al   12  S      Cor( 1S)     2.00000
   231   Al   12  S      Cor( 2S)     1.99783
   232   Al   12  S      Val( 3S)     0.65869
   233   Al   12  S      Ryd( 4S)     0.00146
   234   Al   12  S      Ryd( 5S)     0.00126
   235   Al   12  S      Ryd( 6S)     0.00021
   236   Al   12  px     Cor( 2p)     1.99941
   237   Al   12  px     Val( 3p)     0.16255
   238   Al   12  px     Ryd( 4p)     0.00078
   239   Al   12  px     Ryd( 5p)     0.00031
   240   Al   12  py     Cor( 2p)     1.99957
   241   Al   12  py     Val( 3p)     0.35591
   242   Al   12  py     Ryd( 4p)     0.00091
   243   Al   12  py     Ryd( 5p)     0.00043
   244   Al   12  pz     Cor( 2p)     1.99966
   245   Al   12  pz     Val( 3p)     0.32179
   246   Al   12  pz     Ryd( 4p)     0.00077
   247   Al   12  pz     Ryd( 5p)     0.00039
   248   Al   12  dxy    Ryd( 3d)     0.00385
   249   Al   12  dxz    Ryd( 3d)     0.00190
   250   Al   12  dyz    Ryd( 3d)     0.00515
   251   Al   12  dx2y2  Ryd( 3d)     0.00479
   252   Al   12  dz2    Ryd( 3d)     0.00681

   253    H   13  S      Val( 1S)     1.23388
   254    H   13  S      Ryd( 2S)     0.00091

   255    H   14  S      Val( 1S)     1.22090
   256    H   14  S      Ryd( 2S)     0.00079

   257    H   15  S      Val( 1S)     1.22349
   258    H   15  S      Ryd( 2S)     0.00079

   259    H   16  S      Val( 1S)     1.22610
   260    H   16  S      Ryd( 2S)     0.00090

   261    H   17  S      Val( 1S)     1.21753
   262    H   17  S      Ryd( 2S)     0.00093

   263    H   18  S      Val( 1S)     1.21057
   264    H   18  S      Ryd( 2S)     0.00093

   265    H   19  S      Val( 1S)     1.24273
   266    H   19  S      Ryd( 2S)     0.00102

   267    H   20  S      Val( 1S)     1.24034
   268    H   20  S      Ryd( 2S)     0.00129

   269    H   21  S      Val( 1S)     1.22785
   270    H   21  S      Ryd( 2S)     0.00107

   271    H   22  S      Val( 1S)     1.22471
   272    H   22  S      Ryd( 2S)     0.00111

   273    H   23  S      Val( 1S)     1.42305
   274    H   23  S      Ryd( 2S)     0.00050

   275    H   24  S      Val( 1S)     1.40835
   276    H   24  S      Ryd( 2S)     0.00034

   277   Co   25  S      Cor( 1S)     2.00000
   278   Co   25  S      Cor( 2S)     2.00000
   279   Co   25  S      Cor( 3S)     1.99729
   280   Co   25  S      Val( 4S)     0.23318
   281   Co   25  S      Ryd( 5S)     0.00088
   282   Co   25  S      Ryd( 6S)     0.00033
   283   Co   25  S      Ryd( 7S)     0.00023
   284   Co   25  S      Ryd( 8S)     0.00013
   285   Co   25  S      Ryd( 9S)     0.00000
   286   Co   25  px     Cor( 2p)     2.00000
   287   Co   25  px     Cor( 3p)     1.99917
   288   Co   25  px     Val( 4p)     0.05442
   289   Co   25  px     Ryd( 5p)     0.00072
   290   Co   25  px     Ryd( 6p)     0.00014
   291   Co   25  px     Ryd( 7p)     0.00014
   292   Co   25  py     Cor( 2p)     2.00000
   293   Co   25  py     Cor( 3p)     1.99904
   294   Co   25  py     Val( 4p)     0.05619
   295   Co   25  py     Ryd( 5p)     0.00088
   296   Co   25  py     Ryd( 6p)     0.00017
   297   Co   25  py     Ryd( 7p)     0.00010
   298   Co   25  pz     Cor( 2p)     2.00000
   299   Co   25  pz     Cor( 3p)     1.99976
   300   Co   25  pz     Val( 4p)     0.02276
   301   Co   25  pz     Ryd( 5p)     0.00160
   302   Co   25  pz     Ryd( 6p)     0.00012
   303   Co   25  pz     Ryd( 7p)     0.00003
   304   Co   25  dxy    Val( 3d)     0.92397
   305   Co   25  dxy    Ryd( 4d)     0.00349
   306   Co   25  dxy    Ryd( 5d)     0.00016
   307   Co   25  dxz    Val( 3d)     1.70095
   308   Co   25  dxz    Ryd( 4d)     0.00218
   309   Co   25  dxz    Ryd( 5d)     0.00006
   310   Co   25  dyz    Val( 3d)     1.58290
   311   Co   25  dyz    Ryd( 4d)     0.00171
   312   Co   25  dyz    Ryd( 5d)     0.00012
   313   Co   25  dx2y2  Val( 3d)     1.90986
   314   Co   25  dx2y2  Ryd( 4d)     0.00522
   315   Co   25  dx2y2  Ryd( 5d)     0.00012
   316   Co   25  dz2    Val( 3d)     1.84663
   317   Co   25  dz2    Ryd( 4d)     0.00208
   318   Co   25  dz2    Ryd( 5d)     0.00012
   319   Co   25  f(0)   Ryd( 4f)     0.00002
   320   Co   25  f(C1)  Ryd( 4f)     0.00002
   321   Co   25  f(S1)  Ryd( 4f)     0.00004
   322   Co   25  f(C2)  Ryd( 4f)     0.00002
   323   Co   25  f(S2)  Ryd( 4f)     0.00006
   324   Co   25  f(C3)  Ryd( 4f)     0.00006
   325   Co   25  f(S3)  Ryd( 4f)     0.00004

[...]
   108    O    6  pz     Ryd( 3p)     0.00340       0.39729
   109    O    6  pz     Ryd( 4p)     0.00027       1.23806
   110    O    6  dxy    Ryd( 3d)     0.00017       2.20570
   111    O    6  dxz    Ryd( 3d)     0.00018       1.98491
   112    O    6  dyz    Ryd( 3d)     0.00026       1.96503
   113    O    6  dx2y2  Ryd( 3d)     0.00024       2.18954
   114    O    6  dz2    Ryd( 3d)     0.00027       2.03129

   115   Si    7  S      Cor( 1S)     1.00000     -65.46292
   116   Si    7  S      Cor( 2S)     0.99894      -6.00649
   117   Si    7  S      Val( 3S)     0.41735      -0.21274
   118   Si    7  S      Ryd( 5S)     0.00079       1.01933
   119   Si    7  S      Ryd( 6S)     0.00029       1.30183
   120   Si    7  S      Ryd( 4S)     0.00008       0.57368
   121   Si    7  px     Cor( 2p)     0.99981      -3.71704
   122   Si    7  px     Val( 3p)     0.15294       0.03380
   123   Si    7  px     Ryd( 5p)     0.00064       0.33065
   124   Si    7  px     Ryd( 4p)     0.00019       0.18827
   125   Si    7  py     Cor( 2p)     0.99987      -3.71592
   126   Si    7  py     Val( 3p)     0.22916       0.02210
   127   Si    7  py     Ryd( 5p)     0.00058       0.32419
   128   Si    7  py     Ryd( 4p)     0.00017       0.23315
   129   Si    7  pz     Cor( 2p)     0.99991      -3.71554
   130   Si    7  pz     Val( 3p)     0.29501       0.03057
   131   Si    7  pz     Ryd( 4p)     0.00068       0.31755
   132   Si    7  pz     Ryd( 5p)     0.00016       0.34438
   133   Si    7  dxy    Ryd( 3d)     0.00477       0.92259
   134   Si    7  dxz    Ryd( 3d)     0.00338       0.85510
   135   Si    7  dyz    Ryd( 3d)     0.00351       0.99863
   136   Si    7  dx2y2  Ryd( 3d)     0.00454       1.11165
   137   Si    7  dz2    Ryd( 3d)     0.00705       0.90952

   138   Si    8  S      Cor( 1S)     1.00000     -65.39421
   139   Si    8  S      Cor( 2S)     0.99859      -6.01175
   140   Si    8  S      Val( 3S)     0.41866      -0.19259
   141   Si    8  S      Ryd( 5S)     0.00152       1.01391
   142   Si    8  S      Ryd( 6S)     0.00028       1.27442
   143   Si    8  S      Ryd( 4S)     0.00009       0.67550
   144   Si    8  px     Cor( 2p)     0.99983      -3.68913
   145   Si    8  px     Val( 3p)     0.13604       0.03894
   146   Si    8  px     Ryd( 5p)     0.00047       0.36970
   147   Si    8  px     Ryd( 4p)     0.00009       0.21311
   148   Si    8  py     Cor( 2p)     0.99985      -3.68815
   149   Si    8  py     Val( 3p)     0.24475       0.05496
   150   Si    8  py     Ryd( 5p)     0.00117       0.36434
   151   Si    8  py     Ryd( 4p)     0.00022       0.35187
   152   Si    8  pz     Cor( 2p)     0.99991      -3.68839
   153   Si    8  pz     Val( 3p)     0.30229       0.04869
   154   Si    8  pz     Ryd( 4p)     0.00086       0.34825
   155   Si    8  pz     Ryd( 5p)     0.00013       0.35262
   156   Si    8  dxy    Ryd( 3d)     0.00301       0.89533
   157   Si    8  dxz    Ryd( 3d)     0.00374       0.72796
   158   Si    8  dyz    Ryd( 3d)     0.00432       0.79626
   159   Si    8  dx2y2  Ryd( 3d)     0.00571       0.77680
   160   Si    8  dz2    Ryd( 3d)     0.00622       0.80985

   161   Si    9  S      Cor( 1S)     1.00000     -65.45814
   162   Si    9  S      Cor( 2S)     0.99898      -5.99223
   163   Si    9  S      Val( 3S)     0.41612      -0.20210
   164   Si    9  S      Ryd( 6S)     0.00076       1.26646
   165   Si    9  S      Ryd( 5S)     0.00037       1.18334
   166   Si    9  S      Ryd( 4S)     0.00011       0.40500
   167   Si    9  px     Cor( 2p)     0.99983      -3.70777
   168   Si    9  px     Val( 3p)     0.17514       0.03955
   169   Si    9  px     Ryd( 5p)     0.00050       0.34905
   170   Si    9  px     Ryd( 4p)     0.00016       0.16709
   171   Si    9  py     Cor( 2p)     0.99984      -3.70778
   172   Si    9  py     Val( 3p)     0.16513       0.03089
   173   Si    9  py     Ryd( 5p)     0.00037       0.33996
   174   Si    9  py     Ryd( 4p)     0.00026       0.19933
   175   Si    9  pz     Cor( 2p)     0.99992      -3.70660
   176   Si    9  pz     Val( 3p)     0.33529       0.03308
   177   Si    9  pz     Ryd( 4p)     0.00051       0.32502
   178   Si    9  pz     Ryd( 5p)     0.00011       0.36269
   179   Si    9  dxy    Ryd( 3d)     0.00376       0.72818
   180   Si    9  dxz    Ryd( 3d)     0.00546       0.72470
   181   Si    9  dyz    Ryd( 3d)     0.00486       0.69781
   182   Si    9  dx2y2  Ryd( 3d)     0.00279       0.93897
   183   Si    9  dz2    Ryd( 3d)     0.00480       0.83997

   184   Si   10  S      Cor( 1S)     1.00000     -65.40288
   185   Si   10  S      Cor( 2S)     0.99898      -5.95400
   186   Si   10  S      Val( 3S)     0.41165      -0.16280
   187   Si   10  S      Ryd( 5S)     0.00133       0.92417
   188   Si   10  S      Ryd( 6S)     0.00033       1.61741
   189   Si   10  S      Ryd( 4S)     0.00008       0.45453
   190   Si   10  px     Cor( 2p)     0.99981      -3.66460
   191   Si   10  px     Val( 3p)     0.16408       0.05603
   192   Si   10  px     Ryd( 5p)     0.00066       0.38543
   193   Si   10  px     Ryd( 4p)     0.00015       0.19370
   194   Si   10  py     Cor( 2p)     0.99987      -3.65932
   195   Si   10  py     Val( 3p)     0.19348       0.07783
   196   Si   10  py     Ryd( 5p)     0.00059       0.37858
   197   Si   10  py     Ryd( 4p)     0.00036       0.22152
   198   Si   10  pz     Cor( 2p)     0.99992      -3.66092
   199   Si   10  pz     Val( 3p)     0.33310       0.08114
   200   Si   10  pz     Ryd( 5p)     0.00085       0.36204
   201   Si   10  pz     Ryd( 4p)     0.00011       0.36193
   202   Si   10  dxy    Ryd( 3d)     0.00471       0.75048
   203   Si   10  dxz    Ryd( 3d)     0.00333       0.72963
   204   Si   10  dyz    Ryd( 3d)     0.00856       0.78610
   205   Si   10  dx2y2  Ryd( 3d)     0.00295       0.97193
   206   Si   10  dz2    Ryd( 3d)     0.00411       0.86182

   207   Si   11  S      Cor( 1S)     1.00000     -65.42915
   208   Si   11  S      Cor( 2S)     0.99859      -6.03922
   209   Si   11  S      Val( 3S)     0.42557      -0.22297
   210   Si   11  S      Ryd( 5S)     0.00122       1.07053
   211   Si   11  S      Ryd( 6S)     0.00032       1.32287
   212   Si   11  S      Ryd( 4S)     0.00010       0.54678
   213   Si   11  px     Cor( 2p)     0.99983      -3.71882
   214   Si   11  px     Val( 3p)     0.12836       0.00835
   215   Si   11  px     Ryd( 5p)     0.00059       0.34535
   216   Si   11  px     Ryd( 4p)     0.00012       0.20664
   217   Si   11  py     Cor( 2p)     0.99984      -3.71713
   218   Si   11  py     Val( 3p)     0.23623       0.02929
   219   Si   11  py     Ryd( 5p)     0.00118       0.34301
   220   Si   11  py     Ryd( 4p)     0.00019       0.34142
   221   Si   11  pz     Cor( 2p)     0.99991      -3.71678
   222   Si   11  pz     Val( 3p)     0.31337       0.02342
   223   Si   11  pz     Ryd( 4p)     0.00088       0.33023
   224   Si   11  pz     Ryd( 5p)     0.00009       0.36300
   225   Si   11  dxy    Ryd( 3d)     0.00248       0.86190
   226   Si   11  dxz    Ryd( 3d)     0.00259       0.68134
   227   Si   11  dyz    Ryd( 3d)     0.00486       0.77712
   228   Si   11  dx2y2  Ryd( 3d)     0.00510       0.75096
   229   Si   11  dz2    Ryd( 3d)     0.00653       0.79903

   230   Al   12  S      Cor( 1S)     1.00000     -55.34575
   231   Al   12  S      Cor( 2S)     0.99892      -4.64457
   232   Al   12  S      Val( 3S)     0.32941       0.00055
   233   Al   12  S      Ryd( 6S)     0.00080       0.99837
   234   Al   12  S      Ryd( 4S)     0.00066       0.44108
   235   Al   12  S      Ryd( 5S)     0.00010       0.64380
   236   Al   12  px     Cor( 2p)     0.99971      -2.62729
   237   Al   12  px     Val( 3p)     0.08127       0.12795
   238   Al   12  px     Ryd( 5p)     0.00040       0.31209
   239   Al   12  px     Ryd( 4p)     0.00016       0.26132
   240   Al   12  py     Cor( 2p)     0.99979      -2.62361
   241   Al   12  py     Val( 3p)     0.17802       0.18283
   242   Al   12  py     Ryd( 4p)     0.00049       0.27754
   243   Al   12  py     Ryd( 5p)     0.00022       0.33110
   244   Al   12  pz     Cor( 2p)     0.99983      -2.62457
   245   Al   12  pz     Val( 3p)     0.16076       0.15581
   246   Al   12  pz     Ryd( 5p)     0.00037       0.29984
   247   Al   12  pz     Ryd( 4p)     0.00020       0.27975
   248   Al   12  dxy    Ryd( 3d)     0.00195       0.86946
   249   Al   12  dxz    Ryd( 3d)     0.00094       0.85082
   250   Al   12  dyz    Ryd( 3d)     0.00257       1.04821
   251   Al   12  dx2y2  Ryd( 3d)     0.00239       1.05088
   252   Al   12  dz2    Ryd( 3d)     0.00341       0.83531

   253    H   13  S      Val( 1S)     0.61708      -0.18288
   254    H   13  S      Ryd( 2S)     0.00046       0.83852

   255    H   14  S      Val( 1S)     0.61035      -0.17577
   256    H   14  S      Ryd( 2S)     0.00040       0.84347

   257    H   15  S      Val( 1S)     0.61126      -0.18236
   258    H   15  S      Ryd( 2S)     0.00039       0.82028

   259    H   16  S      Val( 1S)     0.61328      -0.18923
   260    H   16  S      Ryd( 2S)     0.00045       0.83991

   261    H   17  S      Val( 1S)     0.60888      -0.18594
   262    H   17  S      Ryd( 2S)     0.00048       0.85176

   263    H   18  S      Val( 1S)     0.60528      -0.18179
   264    H   18  S      Ryd( 2S)     0.00046       0.85789

   265    H   19  S      Val( 1S)     0.62148      -0.14000
   266    H   19  S      Ryd( 2S)     0.00051       0.88253

   267    H   20  S      Val( 1S)     0.62000      -0.15399
   268    H   20  S      Ryd( 2S)     0.00065       0.87884

   269    H   21  S      Val( 1S)     0.61389      -0.16749
   270    H   21  S      Ryd( 2S)     0.00054       0.88050

   271    H   22  S      Val( 1S)     0.61245      -0.16166
   272    H   22  S      Ryd( 2S)     0.00058       0.87369

   273    H   23  S      Val( 1S)     0.71138      -0.13248
   274    H   23  S      Ryd( 2S)     0.00026       1.00374

   275    H   24  S      Val( 1S)     0.70466      -0.12921
   276    H   24  S      Ryd( 2S)     0.00018       0.96813

   277   Co   25  S      Cor( 1S)     1.00000    -239.53335
   278   Co   25  S      Cor( 2S)     1.00000     -69.31621
   279   Co   25  S      Cor( 3S)     0.99866      -5.06790
   280   Co   25  S      Val( 4S)     0.11744       0.04769
   281   Co   25  S      Ryd( 5S)     0.00044       0.51102
   282   Co   25  S      Ryd( 8S)     0.00017       1.83244
   283   Co   25  S      Ryd( 7S)     0.00011       0.98018
   284   Co   25  S      Ryd( 6S)     0.00006       0.89013
   285   Co   25  S      Ryd( 9S)     0.00000      25.85840
   286   Co   25  px     Cor( 2p)     1.00000     -28.40205
   287   Co   25  px     Cor( 3p)     0.99959      -2.40002
   288   Co   25  px     Val( 4p)     0.02727       0.09568
   289   Co   25  px     Ryd( 6p)     0.00036       0.84609
   290   Co   25  px     Ryd( 5p)     0.00007       0.80214
   291   Co   25  px     Ryd( 7p)     0.00007       3.10712
   292   Co   25  py     Cor( 2p)     1.00000     -28.40331
   293   Co   25  py     Cor( 3p)     0.99955      -2.40280
   294   Co   25  py     Val( 4p)     0.02807       0.07073
   295   Co   25  py     Ryd( 6p)     0.00044       0.93885
   296   Co   25  py     Ryd( 5p)     0.00010       0.79392
   297   Co   25  py     Ryd( 7p)     0.00005       3.22369
   298   Co   25  pz     Cor( 2p)     1.00000     -28.39398
   299   Co   25  pz     Cor( 3p)     0.99989      -2.38834
   300   Co   25  pz     Val( 4p)     0.01178       0.03706
   301   Co   25  pz     Ryd( 6p)     0.00080       1.01971
   302   Co   25  pz     Ryd( 5p)     0.00006       0.70678
   303   Co   25  pz     Ryd( 7p)     0.00002       2.89253
   304   Co   25  dxy    Val( 3d)     0.41021      -0.12819
   305   Co   25  dxy    Ryd( 4d)     0.00173       0.86267
   306   Co   25  dxy    Ryd( 5d)     0.00008       2.08283
   307   Co   25  dxz    Val( 3d)     0.84804      -0.18513
   308   Co   25  dxz    Ryd( 4d)     0.00105       0.44911
   309   Co   25  dxz    Ryd( 5d)     0.00003       1.97238
   310   Co   25  dyz    Val( 3d)     0.82689      -0.19073
   311   Co   25  dyz    Ryd( 4d)     0.00084       0.49194
   312   Co   25  dyz    Ryd( 5d)     0.00006       2.00121
   313   Co   25  dx2y2  Val( 3d)     0.96083      -0.22858
   314   Co   25  dx2y2  Ryd( 4d)     0.00260       0.72211
   315   Co   25  dx2y2  Ryd( 5d)     0.00006       2.02302
   316   Co   25  dz2    Val( 3d)     0.93361      -0.19470
   317   Co   25  dz2    Ryd( 4d)     0.00104       0.65613
   318   Co   25  dz2    Ryd( 5d)     0.00006       2.08326
   319   Co   25  f(0)   Ryd( 4f)     0.00001       2.39915
   320   Co   25  f(C1)  Ryd( 4f)     0.00001       2.41129
   321   Co   25  f(S1)  Ryd( 4f)     0.00002       2.47292
   322   Co   25  f(C2)  Ryd( 4f)     0.00001       2.37121
   323   Co   25  f(S2)  Ryd( 4f)     0.00003       2.42268
   324   Co   25  f(C3)  Ryd( 4f)     0.00003       2.55661
   325   Co   25  f(S3)  Ryd( 4f)     0.00002       2.46679

 WARNING:  1 low occupancy (<0.9990e) core orbital  found on Si    7
           1 low occupancy (<0.9990e) core orbital  found on Si    8
           1 low occupancy (<0.9990e) core orbital  found on Si    9
           1 low occupancy (<0.9990e) core orbital  found on Si   10
           1 low occupancy (<0.9990e) core orbital  found on Si   11
           1 low occupancy (<0.9990e) core orbital  found on Al   12
           1 low occupancy (<0.9990e) core orbital  found on Co   25

 WARNING:  Population inversion found on atom  O    1
           Population inversion found on atom  O    2
           Population inversion found on atom Si    7
           Population inversion found on atom Si    8
           Population inversion found on atom Si    9
           Population inversion found on atom Si   10
           Population inversion found on atom Si   11
           Population inversion found on atom Al   12
           Population inversion found on atom Co   25


 Summary of Natural Population Analysis:                  
                                                          
                                       Natural Population 
                Natural  -----------------------------------------------
    Atom  No    Charge         Core      Valence    Rydberg      Total
 -----------------------------------------------------------------------
      O    1   -0.63407      0.99994     3.62672    0.00741     4.63407
      O    2   -0.64745      0.99996     3.64087    0.00663     4.64745
      O    3   -0.64126      0.99994     3.63250    0.00883     4.64126
      O    4   -0.67213      0.99995     3.66126    0.01092     4.67213
      O    5   -0.64944      0.99994     3.64069    0.00881     4.64944
      O    6   -0.64600      0.99994     3.63637    0.00969     4.64600
     Si    7    0.88017      4.99853     1.09446    0.02684     6.11983
     Si    8    0.87224      4.99818     1.10174    0.02784     6.12776
     Si    9    0.88490      4.99857     1.09168    0.02484     6.11510
     Si   10    0.87096      4.99858     1.10232    0.02813     6.12904
     Si   11    0.87207      4.99816     1.10353    0.02624     6.12793
     Al   12    0.73763      4.99825     0.74946    0.01466     5.76237
      H   13   -0.11754      0.00000     0.61708    0.00046     0.61754
      H   14   -0.11074      0.00000     0.61035    0.00040     0.61074
      H   15   -0.11165      0.00000     0.61126    0.00039     0.61165
      H   16   -0.11373      0.00000     0.61328    0.00045     0.61373
      H   17   -0.10936      0.00000     0.60888    0.00048     0.60936
      H   18   -0.10574      0.00000     0.60528    0.00046     0.60574
      H   19   -0.12199      0.00000     0.62148    0.00051     0.62199
      H   20   -0.12065      0.00000     0.62000    0.00065     0.62065
      H   21   -0.11443      0.00000     0.61389    0.00054     0.61443
      H   22   -0.11304      0.00000     0.61245    0.00058     0.61304
      H   23   -0.21164      0.00000     0.71138    0.00026     0.71164
      H   24   -0.20484      0.00000     0.70466    0.00018     0.70484
     Co   25    0.32774      8.99769     4.16414    0.01044    13.17226
 =======================================================================
   * Total *    0.00000     44.98763    39.79575    0.21662    85.00000

                                 Natural Population      
 --------------------------------------------------------
   Core                      44.98763 ( 99.9725% of  45)
   Valence                   39.79575 ( 99.4894% of  40)
   Natural Minimal Basis     84.78338 ( 99.7451% of  85)
   Natural Rydberg Basis      0.21662 (  0.2549% of  85)
 --------------------------------------------------------

    Atom  No          Natural Electron Configuration
 ----------------------------------------------------------------------------
      O    1      [core]2S( 0.87)2p( 2.76)
      O    2      [core]2S( 0.88)2p( 2.76)
      O    3      [core]2S( 0.86)2p( 2.77)
      O    4      [core]2S( 0.88)2p( 2.78)3p( 0.01)
      O    5      [core]2S( 0.87)2p( 2.77)3p( 0.01)
      O    6      [core]2S( 0.87)2p( 2.77)3p( 0.01)
     Si    7      [core]3S( 0.42)3p( 0.68)3d( 0.02)
     Si    8      [core]3S( 0.42)3p( 0.68)3d( 0.02)
     Si    9      [core]3S( 0.42)3p( 0.68)3d( 0.02)
     Si   10      [core]3S( 0.41)3p( 0.69)3d( 0.02)
     Si   11      [core]3S( 0.43)3p( 0.68)3d( 0.02)
     Al   12      [core]3S( 0.33)3p( 0.42)3d( 0.01)
      H   13            1S( 0.62)
      H   14            1S( 0.61)
      H   15            1S( 0.61)
      H   16            1S( 0.61)
      H   17            1S( 0.61)
      H   18            1S( 0.61)
      H   19            1S( 0.62)
      H   20            1S( 0.62)
      H   21            1S( 0.61)
      H   22            1S( 0.61)
      H   23            1S( 0.71)
      H   24            1S( 0.70)
     Co   25      [core]4S( 0.12)3d( 3.98)4p( 0.07)4d( 0.01)


 NBO analysis skipped by request.
 1\1\GINC-N2060\SP\UB3LYP\6-31+G(d)\Al1Co1H12O6Si5\NGALLUP\24-May-2017\
 0\\# ub3lyp/6-31+g(d) guess=(mix,always) int=ultrafine scf=xqc empiric
 aldispersion=gd3 geom=(check,keepconstants) pop=npa\\Automatic NBO\\0,
 1\O,0,3.5132551243,0.3749049936,-0.4488891027\O,0,-3.1063561288,-0.389
 5586618,-0.5550816178\O,0,1.3022676416,1.7622156334,0.1524778112\O,0,-
 0.7473882005,-1.6895551183,0.1993422129\O,0,1.7223477244,-1.5941008499
 ,-0.2450867828\O,0,-1.1972145987,1.5289969987,-0.2041009106\Si,0,2.962
 4010556,1.6834312073,0.3629963229\Si,0,0.5664804945,-2.5977737956,0.48
 02487699\Si,0,3.315345488,-1.2580005208,-0.5336238616\Si,0,-2.88126053
 24,1.1774057616,-0.3589349141\Si,0,-0.1246854958,2.616509404,0.4103390
 925\Al,0,-2.5480540956,-1.6370695233,0.5659433192\H,-1,4.1316401664,-1
 .8898709208,0.4994683098\H,-1,3.6494243671,-1.6534361733,-1.8897420298
 \H,-1,3.5661836542,2.8389950863,-0.2699489436\H,-1,3.2491131762,1.5694
 440115,1.7994089442\H,-1,-0.0511799701,3.8635658426,-0.3609917948\H,-1
 ,-0.3499101705,2.8231700239,1.8438218426\H,-1,-3.2371262171,1.78508815
 92,-1.6133977826\H,-1,-3.4806294304,1.795755093,0.8461878045\H,-1,0.95
 25695806,-2.7315695733,1.8937558941\H,-1,0.4862864552,-3.8709343731,-0
 .2212801268\H,-1,-2.5594063675,-0.9545734155,1.9892188099\H,-1,-3.1351
 97244,-3.0060907606,0.1295050726\Co,0,0.2349002592,-0.0180157714,-0.25
 37172045\\Version=ES64L-G09RevD.01\State=1-A\HF=-3531.7050038\S2=0.922
 473\S2-1=0.\S2A=0.005063\RMSD=2.430e-09\Dipole=2.8622666,1.5278004,0.2
 197268\Quadrupole=-5.8732755,8.274471,-2.4011955,-9.4007918,1.349457,1
 .5803344\PG=C01 [X(Al1Co1H12O6Si5)]\\@


 EDUCATION DOESN'T COST 
           ... IT PAYS!

 -- POSTMARK, UNIV. OF MISSISSIPPI, DEC 78
 Job cpu time:       0 days  0 hours  1 minutes 14.9 seconds.
 File lengths (MBytes):  RWF=     99 Int=      0 D2E=      0 Chk=     13 Scr=      1
 Normal termination of Gaussian 09 at Wed May 24 13:13:55 2017.
